atomdata_small (written by ASE) 

16588 	 atoms 
2  atom types
0.0      345.84000000000003  xlo xhi
0.0      62.880000000000003  ylo yhi
0.0      98.250000000000014  zlo zhi


Atoms 

     1   2                       0                       0                       0
     2   2      3.9300000000000006                       0                       0
     3   2      7.8600000000000012                       0                       0
     4   2      11.790000000000001                       0                       0
     5   2      15.720000000000002                       0                       0
     6   2      19.650000000000002                       0                       0
     7   2      23.580000000000002                       0                       0
     8   2      27.510000000000002                       0                       0
     9   2      31.440000000000005                       0                       0
    10   2      35.370000000000005                       0                       0
    11   2      39.300000000000004                       0                       0
    12   2      43.230000000000004                       0                       0
    13   2      47.160000000000004                       0                       0
    14   2      51.090000000000011                       0                       0
    15   2      55.020000000000003                       0                       0
    16   2      58.950000000000003                       0                       0
    17   2       62.88000000000001                       0                       0
    18   2      66.810000000000002                       0                       0
    19   2      70.740000000000009                       0                       0
    20   2      74.670000000000002                       0                       0
    21   2      78.600000000000009                       0                       0
    22   2      82.530000000000001                       0                       0
    23   2      86.460000000000008                       0                       0
    24   2      90.390000000000001                       0                       0
    25   2      94.320000000000007                       0                       0
    26   2                   98.25                       0                       0
    27   2      102.18000000000002                       0                       0
    28   2      106.10999999999999                       0                       0
    29   2      110.04000000000001                       0                       0
    30   2                  113.97                       0                       0
    31   2      117.90000000000001                       0                       0
    32   2                  121.83                       0                       0
    33   2      125.76000000000002                       0                       0
    34   2                  129.69                       0                       0
    35   2                  133.62                       0                       0
    36   2      137.55000000000001                       0                       0
    37   2      141.48000000000002                       0                       0
    38   2                  145.41                       0                       0
    39   2                  149.34                       0                       0
    40   2      153.27000000000001                       0                       0
    41   2      157.20000000000002                       0                       0
    42   2                  161.13                       0                       0
    43   2                  165.06                       0                       0
    44   2      168.99000000000001                       0                       0
    45   2      172.92000000000002                       0                       0
    46   2      176.85000000000002                       0                       0
    47   2                  180.78                       0                       0
    48   2      184.71000000000001                       0                       0
    49   2      188.64000000000001                       0                       0
    50   2      192.57000000000005                       0                       0
    51   2                   196.5                       0                       0
    52   2      200.43000000000001                       0                       0
    53   2      204.36000000000004                       0                       0
    54   2      208.29000000000002                       0                       0
    55   2      212.21999999999997                       0                       0
    56   2      216.15000000000003                       0                       0
    57   2      220.08000000000001                       0                       0
    58   2      224.01000000000002                       0                       0
    59   2                  227.94                       0                       0
    60   2                  231.87                       0                       0
    61   2      235.80000000000001                       0                       0
    62   2      239.72999999999999                       0                       0
    63   2                  243.66                       0                       0
    64   2                  247.59                       0                       0
    65   2      251.52000000000004                       0                       0
    66   2      255.45000000000002                       0                       0
    67   2                  259.38                       0                       0
    68   2                  263.31                       0                       0
    69   2      267.24000000000001                       0                       0
    70   2      271.17000000000002                       0                       0
    71   2      275.10000000000002                       0                       0
    72   2      279.03000000000003                       0                       0
    73   2      282.96000000000004                       0                       0
    74   2      286.88999999999999                       0                       0
    75   2      290.81999999999999                       0                       0
    76   2                  294.75                       0                       0
    77   2      298.68000000000001                       0                       0
    78   2      302.61000000000001                       0                       0
    79   2      306.54000000000002                       0                       0
    80   2      310.47000000000003                       0                       0
    81   2      314.40000000000003                       0                       0
    82   2      318.33000000000004                       0                       0
    83   2      322.25999999999999                       0                       0
    84   2                  326.19                       0                       0
    85   2                  330.12                       0                       0
    86   2      334.05000000000001                       0                       0
    87   2      337.98000000000002                       0                       0
    88   2      341.91000000000003                       0                       0
    89   2                       0      3.9300000000000002                       0
    90   2      3.9300000000000006      3.9300000000000002                       0
    91   2      7.8600000000000012      3.9300000000000002                       0
    92   2      11.790000000000001      3.9300000000000002                       0
    93   2      15.720000000000002      3.9300000000000002                       0
    94   2      19.650000000000002      3.9300000000000002                       0
    95   2      23.580000000000002      3.9300000000000002                       0
    96   2      27.510000000000002      3.9300000000000002                       0
    97   2      31.440000000000005      3.9300000000000002                       0
    98   2      35.370000000000005      3.9300000000000002                       0
    99   2      39.300000000000004      3.9300000000000002                       0
   100   2      43.230000000000004      3.9300000000000002                       0
   101   2      47.160000000000004      3.9300000000000002                       0
   102   2      51.090000000000011      3.9300000000000002                       0
   103   2      55.020000000000003      3.9300000000000002                       0
   104   2      58.950000000000003      3.9300000000000002                       0
   105   2       62.88000000000001      3.9300000000000002                       0
   106   2      66.810000000000002      3.9300000000000002                       0
   107   2      70.740000000000009      3.9300000000000002                       0
   108   2      74.670000000000002      3.9300000000000002                       0
   109   2      78.600000000000009      3.9300000000000002                       0
   110   2      82.530000000000001      3.9300000000000002                       0
   111   2      86.460000000000008      3.9300000000000002                       0
   112   2      90.390000000000001      3.9300000000000002                       0
   113   2      94.320000000000007      3.9300000000000002                       0
   114   2                   98.25      3.9300000000000002                       0
   115   2      102.18000000000002      3.9300000000000002                       0
   116   2      106.10999999999999      3.9300000000000002                       0
   117   2      110.04000000000001      3.9300000000000002                       0
   118   2                  113.97      3.9300000000000002                       0
   119   2      117.90000000000001      3.9300000000000002                       0
   120   2                  121.83      3.9300000000000002                       0
   121   2      125.76000000000002      3.9300000000000002                       0
   122   2                  129.69      3.9300000000000002                       0
   123   2                  133.62      3.9300000000000002                       0
   124   2      137.55000000000001      3.9300000000000002                       0
   125   2      141.48000000000002      3.9300000000000002                       0
   126   2                  145.41      3.9300000000000002                       0
   127   2                  149.34      3.9300000000000002                       0
   128   2      153.27000000000001      3.9300000000000002                       0
   129   2      157.20000000000002      3.9300000000000002                       0
   130   2                  161.13      3.9300000000000002                       0
   131   2                  165.06      3.9300000000000002                       0
   132   2      168.99000000000001      3.9300000000000002                       0
   133   2      172.92000000000002      3.9300000000000002                       0
   134   2      176.85000000000002      3.9300000000000002                       0
   135   2                  180.78      3.9300000000000002                       0
   136   2      184.71000000000001      3.9300000000000002                       0
   137   2      188.64000000000001      3.9300000000000002                       0
   138   2      192.57000000000005      3.9300000000000002                       0
   139   2                   196.5      3.9300000000000002                       0
   140   2      200.43000000000001      3.9300000000000002                       0
   141   2      204.36000000000004      3.9300000000000002                       0
   142   2      208.29000000000002      3.9300000000000002                       0
   143   2      212.21999999999997      3.9300000000000002                       0
   144   2      216.15000000000003      3.9300000000000002                       0
   145   2      220.08000000000001      3.9300000000000002                       0
   146   2      224.01000000000002      3.9300000000000002                       0
   147   2                  227.94      3.9300000000000002                       0
   148   2                  231.87      3.9300000000000002                       0
   149   2      235.80000000000001      3.9300000000000002                       0
   150   2      239.72999999999999      3.9300000000000002                       0
   151   2                  243.66      3.9300000000000002                       0
   152   2                  247.59      3.9300000000000002                       0
   153   2      251.52000000000004      3.9300000000000002                       0
   154   2      255.45000000000002      3.9300000000000002                       0
   155   2                  259.38      3.9300000000000002                       0
   156   2                  263.31      3.9300000000000002                       0
   157   2      267.24000000000001      3.9300000000000002                       0
   158   2      271.17000000000002      3.9300000000000002                       0
   159   2      275.10000000000002      3.9300000000000002                       0
   160   2      279.03000000000003      3.9300000000000002                       0
   161   2      282.96000000000004      3.9300000000000002                       0
   162   2      286.88999999999999      3.9300000000000002                       0
   163   2      290.81999999999999      3.9300000000000002                       0
   164   2                  294.75      3.9300000000000002                       0
   165   2      298.68000000000001      3.9300000000000002                       0
   166   2      302.61000000000001      3.9300000000000002                       0
   167   2      306.54000000000002      3.9300000000000002                       0
   168   2      310.47000000000003      3.9300000000000002                       0
   169   2      314.40000000000003      3.9300000000000002                       0
   170   2      318.33000000000004      3.9300000000000002                       0
   171   2      322.25999999999999      3.9300000000000002                       0
   172   2                  326.19      3.9300000000000002                       0
   173   2                  330.12      3.9300000000000002                       0
   174   2      334.05000000000001      3.9300000000000002                       0
   175   2      337.98000000000002      3.9300000000000002                       0
   176   2      341.91000000000003      3.9300000000000002                       0
   177   2                       0      7.8600000000000003                       0
   178   2      3.9300000000000006      7.8600000000000003                       0
   179   2      7.8600000000000012      7.8600000000000003                       0
   180   2      11.790000000000001      7.8600000000000003                       0
   181   2      15.720000000000002      7.8600000000000003                       0
   182   2      19.650000000000002      7.8600000000000003                       0
   183   2      23.580000000000002      7.8600000000000003                       0
   184   2      27.510000000000002      7.8600000000000003                       0
   185   2      31.440000000000005      7.8600000000000003                       0
   186   2      35.370000000000005      7.8600000000000003                       0
   187   2      39.300000000000004      7.8600000000000003                       0
   188   2      43.230000000000004      7.8600000000000003                       0
   189   2      47.160000000000004      7.8600000000000003                       0
   190   2      51.090000000000011      7.8600000000000003                       0
   191   2      55.020000000000003      7.8600000000000003                       0
   192   2      58.950000000000003      7.8600000000000003                       0
   193   2       62.88000000000001      7.8600000000000003                       0
   194   2      66.810000000000002      7.8600000000000003                       0
   195   2      70.740000000000009      7.8600000000000003                       0
   196   2      74.670000000000002      7.8600000000000003                       0
   197   2      78.600000000000009      7.8600000000000003                       0
   198   2      82.530000000000001      7.8600000000000003                       0
   199   2      86.460000000000008      7.8600000000000003                       0
   200   2      90.390000000000001      7.8600000000000003                       0
   201   2      94.320000000000007      7.8600000000000003                       0
   202   2                   98.25      7.8600000000000003                       0
   203   2      102.18000000000002      7.8600000000000003                       0
   204   2      106.10999999999999      7.8600000000000003                       0
   205   2      110.04000000000001      7.8600000000000003                       0
   206   2                  113.97      7.8600000000000003                       0
   207   2      117.90000000000001      7.8600000000000003                       0
   208   2                  121.83      7.8600000000000003                       0
   209   2      125.76000000000002      7.8600000000000003                       0
   210   2                  129.69      7.8600000000000003                       0
   211   2                  133.62      7.8600000000000003                       0
   212   2      137.55000000000001      7.8600000000000003                       0
   213   2      141.48000000000002      7.8600000000000003                       0
   214   2                  145.41      7.8600000000000003                       0
   215   2                  149.34      7.8600000000000003                       0
   216   2      153.27000000000001      7.8600000000000003                       0
   217   2      157.20000000000002      7.8600000000000003                       0
   218   2                  161.13      7.8600000000000003                       0
   219   2                  165.06      7.8600000000000003                       0
   220   2      168.99000000000001      7.8600000000000003                       0
   221   2      172.92000000000002      7.8600000000000003                       0
   222   2      176.85000000000002      7.8600000000000003                       0
   223   2                  180.78      7.8600000000000003                       0
   224   2      184.71000000000001      7.8600000000000003                       0
   225   2      188.64000000000001      7.8600000000000003                       0
   226   2      192.57000000000005      7.8600000000000003                       0
   227   2                   196.5      7.8600000000000003                       0
   228   2      200.43000000000001      7.8600000000000003                       0
   229   2      204.36000000000004      7.8600000000000003                       0
   230   2      208.29000000000002      7.8600000000000003                       0
   231   2      212.21999999999997      7.8600000000000003                       0
   232   2      216.15000000000003      7.8600000000000003                       0
   233   2      220.08000000000001      7.8600000000000003                       0
   234   2      224.01000000000002      7.8600000000000003                       0
   235   2                  227.94      7.8600000000000003                       0
   236   2                  231.87      7.8600000000000003                       0
   237   2      235.80000000000001      7.8600000000000003                       0
   238   2      239.72999999999999      7.8600000000000003                       0
   239   2                  243.66      7.8600000000000003                       0
   240   2                  247.59      7.8600000000000003                       0
   241   2      251.52000000000004      7.8600000000000003                       0
   242   2      255.45000000000002      7.8600000000000003                       0
   243   2                  259.38      7.8600000000000003                       0
   244   2                  263.31      7.8600000000000003                       0
   245   2      267.24000000000001      7.8600000000000003                       0
   246   2      271.17000000000002      7.8600000000000003                       0
   247   2      275.10000000000002      7.8600000000000003                       0
   248   2      279.03000000000003      7.8600000000000003                       0
   249   2      282.96000000000004      7.8600000000000003                       0
   250   2      286.88999999999999      7.8600000000000003                       0
   251   2      290.81999999999999      7.8600000000000003                       0
   252   2                  294.75      7.8600000000000003                       0
   253   2      298.68000000000001      7.8600000000000003                       0
   254   2      302.61000000000001      7.8600000000000003                       0
   255   2      306.54000000000002      7.8600000000000003                       0
   256   2      310.47000000000003      7.8600000000000003                       0
   257   2      314.40000000000003      7.8600000000000003                       0
   258   2      318.33000000000004      7.8600000000000003                       0
   259   2      322.25999999999999      7.8600000000000003                       0
   260   2                  326.19      7.8600000000000003                       0
   261   2                  330.12      7.8600000000000003                       0
   262   2      334.05000000000001      7.8600000000000003                       0
   263   2      337.98000000000002      7.8600000000000003                       0
   264   2      341.91000000000003      7.8600000000000003                       0
   265   2                       0      11.790000000000001                       0
   266   2      3.9300000000000006      11.790000000000001                       0
   267   2      7.8600000000000012      11.790000000000001                       0
   268   2      11.790000000000001      11.790000000000001                       0
   269   2      15.720000000000002      11.790000000000001                       0
   270   2      19.650000000000002      11.790000000000001                       0
   271   2      23.580000000000002      11.790000000000001                       0
   272   2      27.510000000000002      11.790000000000001                       0
   273   2      31.440000000000005      11.790000000000001                       0
   274   2      35.370000000000005      11.790000000000001                       0
   275   2      39.300000000000004      11.790000000000001                       0
   276   2      43.230000000000004      11.790000000000001                       0
   277   2      47.160000000000004      11.790000000000001                       0
   278   2      51.090000000000011      11.790000000000001                       0
   279   2      55.020000000000003      11.790000000000001                       0
   280   2      58.950000000000003      11.790000000000001                       0
   281   2       62.88000000000001      11.790000000000001                       0
   282   2      66.810000000000002      11.790000000000001                       0
   283   2      70.740000000000009      11.790000000000001                       0
   284   2      74.670000000000002      11.790000000000001                       0
   285   2      78.600000000000009      11.790000000000001                       0
   286   2      82.530000000000001      11.790000000000001                       0
   287   2      86.460000000000008      11.790000000000001                       0
   288   2      90.390000000000001      11.790000000000001                       0
   289   2      94.320000000000007      11.790000000000001                       0
   290   2                   98.25      11.790000000000001                       0
   291   2      102.18000000000002      11.790000000000001                       0
   292   2      106.10999999999999      11.790000000000001                       0
   293   2      110.04000000000001      11.790000000000001                       0
   294   2                  113.97      11.790000000000001                       0
   295   2      117.90000000000001      11.790000000000001                       0
   296   2                  121.83      11.790000000000001                       0
   297   2      125.76000000000002      11.790000000000001                       0
   298   2                  129.69      11.790000000000001                       0
   299   2                  133.62      11.790000000000001                       0
   300   2      137.55000000000001      11.790000000000001                       0
   301   2      141.48000000000002      11.790000000000001                       0
   302   2                  145.41      11.790000000000001                       0
   303   2                  149.34      11.790000000000001                       0
   304   2      153.27000000000001      11.790000000000001                       0
   305   2      157.20000000000002      11.790000000000001                       0
   306   2                  161.13      11.790000000000001                       0
   307   2                  165.06      11.790000000000001                       0
   308   2      168.99000000000001      11.790000000000001                       0
   309   2      172.92000000000002      11.790000000000001                       0
   310   2      176.85000000000002      11.790000000000001                       0
   311   2                  180.78      11.790000000000001                       0
   312   2      184.71000000000001      11.790000000000001                       0
   313   2      188.64000000000001      11.790000000000001                       0
   314   2      192.57000000000005      11.790000000000001                       0
   315   2                   196.5      11.790000000000001                       0
   316   2      200.43000000000001      11.790000000000001                       0
   317   2      204.36000000000004      11.790000000000001                       0
   318   2      208.29000000000002      11.790000000000001                       0
   319   2      212.21999999999997      11.790000000000001                       0
   320   2      216.15000000000003      11.790000000000001                       0
   321   2      220.08000000000001      11.790000000000001                       0
   322   2      224.01000000000002      11.790000000000001                       0
   323   2                  227.94      11.790000000000001                       0
   324   2                  231.87      11.790000000000001                       0
   325   2      235.80000000000001      11.790000000000001                       0
   326   2      239.72999999999999      11.790000000000001                       0
   327   2                  243.66      11.790000000000001                       0
   328   2                  247.59      11.790000000000001                       0
   329   2      251.52000000000004      11.790000000000001                       0
   330   2      255.45000000000002      11.790000000000001                       0
   331   2                  259.38      11.790000000000001                       0
   332   2                  263.31      11.790000000000001                       0
   333   2      267.24000000000001      11.790000000000001                       0
   334   2      271.17000000000002      11.790000000000001                       0
   335   2      275.10000000000002      11.790000000000001                       0
   336   2      279.03000000000003      11.790000000000001                       0
   337   2      282.96000000000004      11.790000000000001                       0
   338   2      286.88999999999999      11.790000000000001                       0
   339   2      290.81999999999999      11.790000000000001                       0
   340   2                  294.75      11.790000000000001                       0
   341   2      298.68000000000001      11.790000000000001                       0
   342   2      302.61000000000001      11.790000000000001                       0
   343   2      306.54000000000002      11.790000000000001                       0
   344   2      310.47000000000003      11.790000000000001                       0
   345   2      314.40000000000003      11.790000000000001                       0
   346   2      318.33000000000004      11.790000000000001                       0
   347   2      322.25999999999999      11.790000000000001                       0
   348   2                  326.19      11.790000000000001                       0
   349   2                  330.12      11.790000000000001                       0
   350   2      334.05000000000001      11.790000000000001                       0
   351   2      337.98000000000002      11.790000000000001                       0
   352   2      341.91000000000003      11.790000000000001                       0
   353   2                       0      15.720000000000001                       0
   354   2      3.9300000000000006      15.720000000000001                       0
   355   2      7.8600000000000012      15.720000000000001                       0
   356   2      11.790000000000001      15.720000000000001                       0
   357   2      15.720000000000002      15.720000000000001                       0
   358   2      19.650000000000002      15.720000000000001                       0
   359   2      23.580000000000002      15.720000000000001                       0