atomdata_small (written by ASE) 

16588 	 atoms 
3  atom types
0.0      345.84000000000003  xlo xhi
0.0      62.880000000000003  ylo yhi
0.0      98.250000000000014  zlo zhi


Atoms 

     1   1                       0                       0                       0
     2   1      3.9300000000000006                       0                       0
     3   1      7.8600000000000012                       0                       0
     4   1      11.790000000000001                       0                       0
     5   1      15.720000000000002                       0                       0
     6   1      19.650000000000002                       0                       0
     7   1      23.580000000000002                       0                       0
     8   1      27.510000000000002                       0                       0
     9   1      31.440000000000005                       0                       0
    10   1      35.370000000000005                       0                       0
    11   1      39.300000000000004                       0                       0
    12   1      43.230000000000004                       0                       0
    13   1      47.160000000000004                       0                       0
    14   1      51.090000000000011                       0                       0
    15   1      55.020000000000003                       0                       0
    16   1      58.950000000000003                       0                       0
    17   1       62.88000000000001                       0                       0
    18   1      66.810000000000002                       0                       0
    19   1      70.740000000000009                       0                       0
    20   1      74.670000000000002                       0                       0
    21   1      78.600000000000009                       0                       0
    22   1      82.530000000000001                       0                       0
    23   1      86.460000000000008                       0                       0
    24   1      90.390000000000001                       0                       0
    25   1      94.320000000000007                       0                       0
    26   1                   98.25                       0                       0
    27   1      102.18000000000002                       0                       0
    28   1      106.10999999999999                       0                       0
    29   1      110.04000000000001                       0                       0
    30   1                  113.97                       0                       0
    31   1      117.90000000000001                       0                       0
    32   1                  121.83                       0                       0
    33   1      125.76000000000002                       0                       0
    34   1                  129.69                       0                       0
    35   1                  133.62                       0                       0
    36   1      137.55000000000001                       0                       0
    37   1      141.48000000000002                       0                       0
    38   1                  145.41                       0                       0
    39   1                  149.34                       0                       0
    40   1      153.27000000000001                       0                       0
    41   1      157.20000000000002                       0                       0
    42   1                  161.13                       0                       0
    43   1                  165.06                       0                       0
    44   1      168.99000000000001                       0                       0
    45   1      172.92000000000002                       0                       0
    46   1      176.85000000000002                       0                       0
    47   1                  180.78                       0                       0
    48   1      184.71000000000001                       0                       0
    49   1      188.64000000000001                       0                       0
    50   1      192.57000000000005                       0                       0
    51   1                   196.5                       0                       0
    52   1      200.43000000000001                       0                       0
    53   1      204.36000000000004                       0                       0
    54   1      208.29000000000002                       0                       0
    55   1      212.21999999999997                       0                       0
    56   1      216.15000000000003                       0                       0
    57   1      220.08000000000001                       0                       0
    58   1      224.01000000000002                       0                       0
    59   1                  227.94                       0                       0
    60   1                  231.87                       0                       0
    61   1      235.80000000000001                       0                       0
    62   1      239.72999999999999                       0                       0
    63   1                  243.66                       0                       0
    64   1                  247.59                       0                       0
    65   1      251.52000000000004                       0                       0
    66   1      255.45000000000002                       0                       0
    67   1                  259.38                       0                       0
    68   1                  263.31                       0                       0
    69   1      267.24000000000001                       0                       0
    70   1      271.17000000000002                       0                       0
    71   1      275.10000000000002                       0                       0
    72   1      279.03000000000003                       0                       0
    73   1      282.96000000000004                       0                       0
    74   1      286.88999999999999                       0                       0
    75   1      290.81999999999999                       0                       0
    76   1                  294.75                       0                       0
    77   1      298.68000000000001                       0                       0
    78   1      302.61000000000001                       0                       0
    79   1      306.54000000000002                       0                       0
    80   1      310.47000000000003                       0                       0
    81   1      314.40000000000003                       0                       0
    82   1      318.33000000000004                       0                       0
    83   1      322.25999999999999                       0                       0
    84   1                  326.19                       0                       0
    85   1                  330.12                       0                       0
    86   1      334.05000000000001                       0                       0
    87   1      337.98000000000002                       0                       0
    88   1      341.91000000000003                       0                       0
    89   1                       0      3.9300000000000002                       0
    90   1      3.9300000000000006      3.9300000000000002                       0
    91   1      7.8600000000000012      3.9300000000000002                       0
    92   1      11.790000000000001      3.9300000000000002                       0
    93   1      15.720000000000002      3.9300000000000002                       0
    94   1      19.650000000000002      3.9300000000000002                       0
    95   1      23.580000000000002      3.9300000000000002                       0
    96   1      27.510000000000002      3.9300000000000002                       0
    97   1      31.440000000000005      3.9300000000000002                       0
    98   1      35.370000000000005      3.9300000000000002                       0
    99   1      39.300000000000004      3.9300000000000002                       0
   100   1      43.230000000000004      3.9300000000000002                       0
   101   1      47.160000000000004      3.9300000000000002                       0
   102   1      51.090000000000011      3.9300000000000002                       0
   103   1      55.020000000000003      3.9300000000000002                       0
   104   1      58.950000000000003      3.9300000000000002                       0
   105   1       62.88000000000001      3.9300000000000002                       0
   106   1      66.810000000000002      3.9300000000000002                       0
   107   1      70.740000000000009      3.9300000000000002                       0
   108   1      74.670000000000002      3.9300000000000002                       0
   109   1      78.600000000000009      3.9300000000000002                       0
   110   1      82.530000000000001      3.9300000000000002                       0
   111   1      86.460000000000008      3.9300000000000002                       0
   112   1      90.390000000000001      3.9300000000000002                       0
   113   1      94.320000000000007      3.9300000000000002                       0
   114   1                   98.25      3.9300000000000002                       0
   115   1      102.18000000000002      3.9300000000000002                       0
   116   1      106.10999999999999      3.9300000000000002                       0
   117   1      110.04000000000001      3.9300000000000002                       0
   118   1                  113.97      3.9300000000000002                       0
   119   1      117.90000000000001      3.9300000000000002                       0
   120   1                  121.83      3.9300000000000002                       0
   121   1      125.76000000000002      3.9300000000000002                       0
   122   1                  129.69      3.9300000000000002                       0
   123   1                  133.62      3.9300000000000002                       0
   124   1      137.55000000000001      3.9300000000000002                       0
   125   1      141.48000000000002      3.9300000000000002                       0
   126   1                  145.41      3.9300000000000002                       0
   127   1                  149.34      3.9300000000000002                       0
   128   1      153.27000000000001      3.9300000000000002                       0
   129   1      157.20000000000002      3.9300000000000002                       0
   130   1                  161.13      3.9300000000000002                       0
   131   1                  165.06      3.9300000000000002                       0
   132   1      168.99000000000001      3.9300000000000002                       0
   133   1      172.92000000000002      3.9300000000000002                       0
   134   1      176.85000000000002      3.9300000000000002                       0
   135   1                  180.78      3.9300000000000002                       0
   136   1      184.71000000000001      3.9300000000000002                       0
   137   1      188.64000000000001      3.9300000000000002                       0
   138   1      192.57000000000005      3.9300000000000002                       0
   139   1                   196.5      3.9300000000000002                       0
   140   1      200.43000000000001      3.9300000000000002                       0
   141   1      204.36000000000004      3.9300000000000002                       0
   142   1      208.29000000000002      3.9300000000000002                       0
   143   1      212.21999999999997      3.9300000000000002                       0
   144   1      216.15000000000003      3.9300000000000002                       0
   145   1      220.08000000000001      3.9300000000000002                       0
   146   1      224.01000000000002      3.9300000000000002                       0
   147   1                  227.94      3.9300000000000002                       0
   148   1                  231.87      3.9300000000000002                       0
   149   1      235.80000000000001      3.9300000000000002                       0
   150   1      239.72999999999999      3.9300000000000002                       0
   151   1                  243.66      3.9300000000000002                       0
   152   1                  247.59      3.9300000000000002                       0
   153   1      251.52000000000004      3.9300000000000002                       0
   154   1      255.45000000000002      3.9300000000000002                       0
   155   1                  259.38      3.9300000000000002                       0
   156   1                  263.31      3.9300000000000002                       0
   157   1      267.24000000000001      3.9300000000000002                       0
   158   1      271.17000000000002      3.9300000000000002                       0
   159   1      275.10000000000002      3.9300000000000002                       0
   160   1      279.03000000000003      3.9300000000000002                       0
   161   1      282.96000000000004      3.9300000000000002                       0
   162   1      286.88999999999999      3.9300000000000002                       0
   163   1      290.81999999999999      3.9300000000000002                       0
   164   1                  294.75      3.9300000000000002                       0
   165   1      298.68000000000001      3.9300000000000002                       0
   166   1      302.61000000000001      3.9300000000000002                       0
   167   1      306.54000000000002      3.9300000000000002                       0
   168   1      310.47000000000003      3.9300000000000002                       0
   169   1      314.40000000000003      3.9300000000000002                       0
   170   1      318.33000000000004      3.9300000000000002                       0
   171   1      322.25999999999999      3.9300000000000002                       0
   172   1                  326.19      3.9300000000000002                       0
   173   1                  330.12      3.9300000000000002                       0
   174   1      334.05000000000001      3.9300000000000002                       0
   175   1      337.98000000000002      3.9300000000000002                       0
   176   1      341.91000000000003      3.9300000000000002                       0
   177   1                       0      7.8600000000000003                       0
   178   1      3.9300000000000006      7.8600000000000003                       0
   179   1      7.8600000000000012      7.8600000000000003                       0
   180   1      11.790000000000001      7.8600000000000003                       0
   181   1      15.720000000000002      7.8600000000000003                       0
   182   1      19.650000000000002      7.8600000000000003                       0
   183   1      23.580000000000002      7.8600000000000003                       0
   184   1      27.510000000000002      7.8600000000000003                       0
   185   1      31.440000000000005      7.8600000000000003                       0
   186   1      35.370000000000005      7.8600000000000003                       0
   187   1      39.300000000000004      7.8600000000000003                       0
   188   1      43.230000000000004      7.8600000000000003                       0
   189   1      47.160000000000004      7.8600000000000003                       0
   190   1      51.090000000000011      7.8600000000000003                       0
   191   1      55.020000000000003      7.8600000000000003                       0
   192   1      58.950000000000003      7.8600000000000003                       0
   193   1       62.88000000000001      7.8600000000000003                       0
   194   1      66.810000000000002      7.8600000000000003                       0
   195   1      70.740000000000009      7.8600000000000003                       0
   196   1      74.670000000000002      7.8600000000000003                       0
   197   1      78.600000000000009      7.8600000000000003                       0
   198   1      82.530000000000001      7.8600000000000003                       0
   199   1      86.460000000000008      7.8600000000000003                       0
   200   1      90.390000000000001      7.8600000000000003                       0
   201   1      94.320000000000007      7.8600000000000003                       0
   202   1                   98.25      7.8600000000000003                       0
   203   1      102.18000000000002      7.8600000000000003                       0
   204   1      106.10999999999999      7.8600000000000003                       0
   205   1      110.04000000000001      7.8600000000000003                       0
   206   1                  113.97      7.8600000000000003                       0
   207   1      117.90000000000001      7.8600000000000003                       0
   208   1                  121.83      7.8600000000000003                       0
   209   1      125.76000000000002      7.8600000000000003                       0
   210   1                  129.69      7.8600000000000003                       0
   211   1                  133.62      7.8600000000000003                       0
   212   1      137.55000000000001      7.8600000000000003                       0
   213   1      141.48000000000002      7.8600000000000003                       0
   214   1                  145.41      7.8600000000000003                       0
   215   1                  149.34      7.8600000000000003                       0
   216   1      153.27000000000001      7.8600000000000003                       0
   217   1      157.20000000000002      7.8600000000000003                       0
   218   1                  161.13      7.8600000000000003                       0
   219   1                  165.06      7.8600000000000003                       0
   220   1      168.99000000000001      7.8600000000000003                       0
   221   1      172.92000000000002      7.8600000000000003                       0
   222   1      176.85000000000002      7.8600000000000003                       0
   223   1                  180.78      7.8600000000000003                       0
   224   1      184.71000000000001      7.8600000000000003                       0
   225   1      188.64000000000001      7.8600000000000003                       0
   226   1      192.57000000000005      7.8600000000000003                       0
   227   1                   196.5      7.8600000000000003                       0
   228   1      200.43000000000001      7.8600000000000003                       0
   229   1      204.36000000000004      7.8600000000000003                       0
   230   1      208.29000000000002      7.8600000000000003                       0
   231   1      212.21999999999997      7.8600000000000003                       0
   232   1      216.15000000000003      7.8600000000000003                       0
   233   1      220.08000000000001      7.8600000000000003                       0
   234   1      224.01000000000002      7.8600000000000003                       0
   235   1                  227.94      7.8600000000000003                       0
   236   1                  231.87      7.8600000000000003                       0
   237   1      235.80000000000001      7.8600000000000003                       0
   238   1      239.72999999999999      7.8600000000000003                       0
   239   1                  243.66      7.8600000000000003                       0
   240   1                  247.59      7.8600000000000003                       0
   241   1      251.52000000000004      7.8600000000000003                       0
   242   1      255.45000000000002      7.8600000000000003                       0
   243   1                  259.38      7.8600000000000003                       0
   244   1                  263.31      7.8600000000000003                       0
   245   1      267.24000000000001      7.8600000000000003                       0
   246   1      271.17000000000002      7.8600000000000003                       0
   247   1      275.10000000000002      7.8600000000000003                       0
   248   1      279.03000000000003      7.8600000000000003                       0
   249   1      282.96000000000004      7.8600000000000003                       0
   250   1      286.88999999999999      7.8600000000000003                       0
   251   1      290.81999999999999      7.8600000000000003                       0
   252   1                  294.75      7.8600000000000003                       0
   253   1      298.68000000000001      7.8600000000000003                       0
   254   1      302.61000000000001      7.8600000000000003                       0
   255   1      306.54000000000002      7.8600000000000003                       0
   256   1      310.47000000000003      7.8600000000000003                       0
   257   1      314.40000000000003      7.8600000000000003                       0
   258   1      318.33000000000004      7.8600000000000003                       0
   259   1      322.25999999999999      7.8600000000000003                       0
   260   1                  326.19      7.8600000000000003                       0
   261   1                  330.12      7.8600000000000003                       0
   262   1      334.05000000000001      7.8600000000000003                       0
   263   1      337.98000000000002      7.8600000000000003                       0
   264   1      341.91000000000003      7.8600000000000003                       0
   265   1                       0      11.790000000000001                       0
   266   1      3.9300000000000006      11.790000000000001                       0
   267   1      7.8600000000000012      11.790000000000001                       0
   268   1      11.790000000000001      11.790000000000001                       0
   269   1      15.720000000000002      11.790000000000001                       0
   270   1      19.650000000000002      11.790000000000001                       0
   271   1      23.580000000000002      11.790000000000001                       0
   272   1      27.510000000000002      11.790000000000001                       0
   273   1      31.440000000000005      11.790000000000001                       0
   274   1      35.370000000000005      11.790000000000001                       0
   275   1      39.300000000000004      11.790000000000001                       0
   276   1      43.230000000000004      11.790000000000001                       0
   277   1      47.160000000000004      11.790000000000001                       0
   278   1      51.090000000000011      11.790000000000001                       0
   279   1      55.020000000000003      11.790000000000001                       0
   280   1      58.950000000000003      11.790000000000001                       0
   281   1       62.88000000000001      11.790000000000001                       0
   282   1      66.810000000000002      11.790000000000001                       0
   283   1      70.740000000000009      11.790000000000001                       0
   284   1      74.670000000000002      11.790000000000001                       0
   285   1      78.600000000000009      11.790000000000001                       0
   286   1      82.530000000000001      11.790000000000001                       0
   287   1      86.460000000000008      11.790000000000001                       0
   288   1      90.390000000000001      11.790000000000001                       0
   289   1      94.320000000000007      11.790000000000001                       0
   290   1                   98.25      11.790000000000001                       0
   291   1      102.18000000000002      11.790000000000001                       0
   292   1      106.10999999999999      11.790000000000001                       0
   293   1      110.04000000000001      11.790000000000001                       0
   294   1                  113.97      11.790000000000001                       0
   295   1      117.90000000000001      11.790000000000001                       0
   296   1                  121.83      11.790000000000001                       0
   297   1      125.76000000000002      11.790000000000001                       0
   298   1                  129.69      11.790000000000001                       0
   299   1                  133.62      11.790000000000001                       0
   300   1      137.55000000000001      11.790000000000001                       0
   301   1      141.48000000000002      11.790000000000001                       0
   302   1                  145.41      11.790000000000001                       0
   303   1                  149.34      11.790000000000001                       0
   304   1      153.27000000000001      11.790000000000001                       0
   305   1      157.20000000000002      11.790000000000001                       0
   306   1                  161.13      11.790000000000001                       0
   307   1                  165.06      11.790000000000001                       0
   308   1      168.99000000000001      11.790000000000001                       0
   309   1      172.92000000000002      11.790000000000001                       0
   310   1      176.85000000000002      11.790000000000001                       0
   311   1                  180.78      11.790000000000001                       0
   312   1      184.71000000000001      11.790000000000001                       0
   313   1      188.64000000000001      11.790000000000001                       0
   314   1      192.57000000000005      11.790000000000001                       0
   315   1                   196.5      11.790000000000001                       0
   316   1      200.43000000000001      11.790000000000001                       0
   317   1      204.36000000000004      11.790000000000001                       0
   318   1      208.29000000000002      11.790000000000001                       0
   319   1      212.21999999999997      11.790000000000001                       0
   320   1      216.15000000000003      11.790000000000001                       0
   321   1      220.08000000000001      11.790000000000001                       0
   322   1      224.01000000000002      11.790000000000001                       0
   323   1                  227.94      11.790000000000001                       0
   324   1                  231.87      11.790000000000001                       0
   325   1      235.80000000000001      11.790000000000001                       0
   326   1      239.72999999999999      11.790000000000001                       0
   327   1                  243.66      11.790000000000001                       0
   328   1                  247.59      11.790000000000001                       0
   329   1      251.52000000000004      11.790000000000001                       0
   330   1      255.45000000000002      11.790000000000001                       0
   331   1                  259.38      11.790000000000001                       0
   332   1                  263.31      11.790000000000001                       0
   333   1      267.24000000000001      11.790000000000001                       0
   334   1      271.17000000000002      11.790000000000001                       0
   335   1      275.10000000000002      11.790000000000001                       0
   336   1      279.03000000000003      11.790000000000001                       0
   337   1      282.96000000000004      11.790000000000001                       0
   338   1      286.88999999999999      11.790000000000001                       0
   339   1      290.81999999999999      11.790000000000001                       0
   340   1                  294.75      11.790000000000001                       0
   341   1      298.68000000000001      11.790000000000001                       0
   342   1      302.61000000000001      11.790000000000001                       0
   343   1      306.54000000000002      11.790000000000001                       0
   344   1      310.47000000000003      11.790000000000001                       0
   345   1      314.40000000000003      11.790000000000001                       0
   346   1      318.33000000000004      11.790000000000001                       0
   347   1      322.25999999999999      11.790000000000001                       0
   348   1                  326.19      11.790000000000001                       0
   349   1                  330.12      11.790000000000001                       0
   350   1      334.05000000000001      11.790000000000001                       0
   351   1      337.98000000000002      11.790000000000001                       0
   352   1      341.91000000000003      11.790000000000001                       0
   353   1                       0      15.720000000000001                       0
   354   1      3.9300000000000006      15.720000000000001                       0
   355   1      7.8600000000000012      15.720000000000001                       0
   356   1      11.790000000000001      15.720000000000001                       0
   357   1      15.720000000000002      15.720000000000001                       0
   358   1      19.650000000000002      15.720000000000001                       0
   359   1      23.580000000000002      15.720000000000001                       0