LAMMPS (3 Mar 2020)
  using 8 OpenMP thread(s) per MPI task
## binning x:130-500, y:0.0-121.83, z:11.79-98.0

############################################################
#####	 	    Argon sandwich	   	   #########
############################################################
variable		T equal 33.0
variable 		V equal vol
variable 		dt equal 5.0

units			real
atom_style		atomic
dimension 		3
boundary		p p p

read_data		atomdata
  orthogonal box = (0 0 0) to (687.75 121.83 110.04)
  4 by 1 by 1 MPI processor grid
  reading atoms ...
  179040 atoms
  read_data CPU = 0.560084 secs
#read_data         	atomdata_small
#read_restart 		water.restart.mpiio

############################################################
#############INTERACTION PARAMETERS#########################
group                   bread     type 2
130200 atoms in group bread
group                   ham       type 1
48840 atoms in group ham

mass                    2       195.084  ## atomic mass of platinum
mass                    1       39.95  ## atomic mass of argon

neighbor        	2.0 bin
neigh_modify		every 1 delay 10 check yes

################# hybrid potential #######################
#pair_style 		hybrid/overlay lj/cut 18.7 sw

#pair_coeff              * * sw mW.sw mW NULL
#pair_coeff	    	2 2  lj/cut 15.999 2.47 7.0
#pair_coeff		1 2  lj/cut 0.9 2.8140 7.0
################### L-J potential #####################
pair_style             lj/cut/opt  5.5

pair_coeff             1 1  0.24 3.4  18.7
pair_coeff             1 2  0.168 2.72  18.7
pair_coeff             2 2  15.999 2.47  7.0
######################################################

fix	    		f1 bread setforce 0.0 0.0 0.0
thermo			10
min_style 		fire
#minimize    		1.0e-5 1.0e-7 200 10000
minimize 		1.0e-5 1.0e-7 200 2000
WARNING: Using 'neigh_modify every 1 delay 0 check yes' setting during minimization (../min.cpp:190)
Neighbor list info ...
  update every 1 steps, delay 0 steps, check yes
  max neighbors/atom: 2000, page size: 100000
  master list distance cutoff = 20.7
  ghost atom cutoff = 20.7
  binsize = 10.35, bins = 67 12 11
  1 neighbor lists, perpetual/occasional/extra = 1 0 0
  (1) pair lj/cut/opt, perpetual
      attributes: half, newton on
      pair build: half/bin/atomonly/newton
      stencil: half/bin/3d/newton
      bin: standard
  Parameters for fire: 
    dmax delaystep dtgrow dtshrink alpha0 alphashrink tmax tmin    integrator halfstepback 
     0.1        20    1.1      0.5   0.25        0.99   10 0.02 eulerimplicit          yes 
Per MPI rank memory allocation (min/avg/max) = 60.47 | 91.73 | 136.2 Mbytes
Step Temp E_pair E_mol TotEng Press 
       0            0    -11277112            0    -11277112      74132.1 
      10    2321794.5    -13496144            0 1.225602e+09      6151263 
      20    961407.19    -14165802            0 4.9891919e+08    2531347.7 
      30     679755.5    -15233836            0 3.4753893e+08      1752675 
      40    445893.96    -15474893            0 2.2249036e+08    1125798.1 
      50    310536.15    -15542522            0 1.501848e+08    765147.38 
      60    187613.78    -15566945            0     84559013    438887.28 
      70    98706.518    -15576772            0     37101046    203187.81 
      80    40429.438    -15581575            0    5994857.9    48749.186 
      90    12392.752    -15584162            0   -8970382.7   -25562.331 
      95    5876.7118    -15585039            0    -12448748   -42842.588 
Loop time of 99.3916 on 32 procs for 95 steps with 179040 atoms

71.9% CPU use with 4 MPI tasks x 8 OpenMP threads

Minimization stats:
  Stopping criterion = energy tolerance
  Energy initial, next-to-last, final = 
        -11277112.4789     -15584887.0007     -15585038.7841
  Force two-norm initial, final = 4.36107e+06 64.7682
  Force max component initial, final = 1.71204e+06 1.77338
  Final line search alpha, max atom move = 0 0
  Iterations, force evaluations = 95 96

MPI task timing breakdown:
Section |  min time  |  avg time  |  max time  |%varavg| %total
---------------------------------------------------------------
Pair    | 3.262      | 26.471     | 80.459     | 616.9 | 26.63
Neigh   | 2.0363     | 6.3828     | 16.988     | 244.9 |  6.42
Comm    | 1.1511     | 47.064     | 92.473     | 557.2 | 47.35
Output  | 0.0054989  | 0.0062612  | 0.0075676  |   1.0 |  0.01
Modify  | 0.0094967  | 0.016204   | 0.027685   |   5.4 |  0.02
Other   |            | 19.45      |            |       | 19.57

Nlocal:    44760 ave 61766 max 32364 min
Histogram: 2 0 0 0 0 0 1 0 0 1
Nghost:    85454 ave 97526 max 75828 min
Histogram: 2 0 0 0 0 0 0 1 0 1
Neighs:    8.85027e+06 ave 1.74625e+07 max 2.80159e+06 min
Histogram: 2 0 0 0 0 0 1 0 0 1

Total # of neighbors = 35401091
Ave neighs/atom = 197.727
Neighbor list builds = 10
Dangerous builds = 1

############################################################
#############EQUILIBRATION PARAMETERS######################
velocity 		ham create ${T} 12345
velocity 		ham create 33 12345
compute 		myTemp ham temp
fix			1 ham nvt temp ${T} ${T} 100.0
fix			1 ham nvt temp 33 ${T} 100.0
fix			1 ham nvt temp 33 33 100.0
fix_modify   		1 temp myTemp
WARNING: Temperature for fix modify is not for group all (../fix_nh.cpp:1409)

fix	    		f2 bread setforce 0.0 0.0 0.0
velocity		bread set 0.0 0.0 0.0
timestep 		${dt}
timestep 		5

run 			50000
Per MPI rank memory allocation (min/avg/max) = 60.47 | 91.73 | 136.2 Mbytes
Step Temp E_pair E_mol TotEng Press 
      95    9.0018767    -15585039            0    -15580235   -58368.175 
     100     8.799166    -15584929            0    -15580233   -58364.184 
     110    7.5040842    -15584186            0    -15580181   -58336.637 
     120    6.0384019    -15583296            0    -15580073   -58303.019 
     130    5.6013251    -15582918            0    -15579929   -58287.115 
     140    6.1965614    -15583065            0    -15579758   -58290.588 
     150    7.0415621    -15583324            0    -15579566   -58299.653 
     160    7.6863567    -15583470            0    -15579368   -58305.759 
     170    8.1860111    -15583546            0    -15579178   -58309.422 
     180    8.6653628    -15583629            0    -15579005    -58313.03 
     190    9.1137834    -15583731            0    -15578867   -58317.145 
     200    9.4408428    -15583835            0    -15578797   -58321.418 
     210    9.5248267    -15583928            0    -15578845   -58325.627 
     220    9.4155239    -15584018            0    -15578993   -58329.961 
     230    9.3162162    -15584122            0    -15579151   -58334.723 
     240    9.2718125    -15584246            0    -15579298   -58339.949 
     250    9.2445421    -15584372            0    -15579439   -58345.057 
     260    9.2045252    -15584485            0    -15579573   -58349.523 
     270    9.1691885    -15584594            0    -15579700    -58353.54 
     280    9.1599101    -15584709            0    -15579820   -58357.469 
     290    9.1522468    -15584822            0    -15579937   -58361.016 
     300    9.1185014    -15584917            0    -15580051   -58363.742 
     310    9.0726134    -15584999            0    -15580157   -58365.786 
     320    9.0451285    -15585080            0    -15580253   -58367.618 
     330    9.0475169    -15585167            0    -15580339   -58369.525 
     340    9.0702821    -15585261            0    -15580421   -58371.523 
     350    9.0919378    -15585358            0    -15580505   -58373.416 
     360    9.0881866    -15585445            0    -15580595   -58374.838 
     370    9.0629085    -15585522            0    -15580685   -58375.728 
     380    9.0511538    -15585602            0    -15580772   -58376.531 
     390    9.0620741    -15585691            0    -15580854   -58377.449 
     400    9.0775745    -15585782            0    -15580937   -58378.335 
     410    9.0874152    -15585872            0    -15581023   -58379.106 
     420    9.0841626    -15585959            0    -15581111   -58379.633 
     430    9.0701085    -15586041            0    -15581201   -58379.877 
     440    9.0550543    -15586120            0    -15581288    -58379.93 
     450    9.0482982    -15586199            0    -15581370   -58379.948 
     460    9.0572527    -15586284            0    -15581450   -58380.117 
     470    9.0742506    -15586372            0    -15581529   -58380.433 
     480     9.088228    -15586463            0    -15581613     -58380.8 
     490    9.0869585    -15586549            0    -15581700   -58380.996 
     500    9.0722817    -15586630            0    -15581788   -58380.926 
     510    9.0670029    -15586714            0    -15581875   -58380.847 
     520     9.075508    -15586803            0    -15581960   -58380.854 
     530    9.0872181    -15586896            0    -15582046   -58380.863 
     540     9.093377    -15586987            0    -15582134   -58380.786 
     550    9.0921492    -15587077            0    -15582224   -58380.572 
     560    9.0672912    -15587154            0    -15582315   -58379.895 
     570    9.0374402    -15587224            0    -15582400   -58378.922 
     580    9.0381461    -15587302            0    -15582479   -58378.174 
     590      9.05612    -15587386            0    -15582553   -58377.566 
     600     9.068906    -15587468            0    -15582628   -58376.881 
     610    9.0691603    -15587547            0    -15582707   -58376.043 
     620    9.0567658    -15587621            0    -15582787   -58374.993 
     630    9.0477189    -15587694            0    -15582865   -58373.929 
     640    9.0620373    -15587778            0    -15582942   -58373.223 
     650    9.0929592    -15587873            0    -15583020    -58372.92 
     660    9.1035186    -15587963            0    -15583105   -58372.521 
     670     9.079688    -15588039            0    -15583194   -58371.687 
     680    9.0422748    -15588106            0    -15583280    -58370.53 
     690    9.0294588    -15588177            0    -15583358    -58369.52 
     700    9.0514052    -15588261            0    -15583431   -58368.866 
     710    9.0745721    -15588347            0    -15583504   -58368.201 
     720    9.0717412    -15588423            0    -15583581   -58367.168 
     730    9.0657569    -15588499            0    -15583661   -58366.075 
     740    9.0645109    -15588578            0    -15583740   -58365.059 
     750    9.0651952    -15588657            0    -15583819   -58364.119 
     760    9.0600742    -15588733            0    -15583898   -58363.137 
     770    9.0518629    -15588807            0    -15583976   -58362.086 
     780    9.0533702    -15588883            0    -15584051   -58361.088 
     790    9.0530977    -15588957            0    -15584126   -58359.947 
     800    9.0395498    -15589023            0    -15584199   -58358.467 
     810    9.0354953    -15589091            0    -15584269   -58356.986 
     820    9.0675351    -15589177            0    -15584338   -58356.018 
     830    9.1010867    -15589269            0    -15584411   -58355.231 
     840    9.0942953    -15589347            0    -15584494   -58354.032 
     850    9.0685143    -15589418            0    -15584579   -58352.604 
     860    9.0649812    -15589498            0    -15584660   -58351.496 
     870    9.0769207    -15589584            0    -15584740   -58350.622 
     880    9.0663048    -15589659            0    -15584821    -58349.35 
     890     9.030803    -15589718            0    -15584899   -58347.467 
     900    9.0106513    -15589778            0    -15584969    -58345.48 
     910    9.0253482    -15589848            0    -15585031     -58343.8 
     920      9.06312    -15589929            0    -15585092   -58342.505 
     930    9.0924582    -15590012            0    -15585160   -58341.337 
     940    9.0892949    -15590087            0    -15585237   -58339.924 
     950    9.0556106    -15590150            0    -15585317   -58338.074 
     960    9.0159833    -15590204            0    -15585392   -58335.947 
     970    9.0203493    -15590272            0    -15585458   -58334.285 
     980    9.0625869    -15590357            0    -15585520   -58333.179 
     990    9.0832264    -15590436            0    -15585588   -58331.908 
    1000    9.0716187    -15590504            0    -15585663    -58330.27 
    1010    9.0457253    -15590566            0    -15585738   -58328.375 
    1020    9.0223925    -15590624            0    -15585809    -58326.37 
    1030    9.0263151    -15590691            0    -15585874   -58324.629 
    1040    9.0508034    -15590765            0    -15585935   -58323.147 
    1050    9.0558531    -15590833            0    -15586000   -58321.391 
    1060    9.0384568    -15590890            0    -15586066   -58319.278 
    1070    9.0367052    -15590954            0    -15586131   -58317.349 
    1080    9.0530696    -15591026            0    -15586195   -58315.728 
    1090    9.0560753    -15591094            0    -15586261   -58314.024 
    1100    9.0403682    -15591153            0    -15586328   -58312.121 
    1110    9.0288211    -15591212            0    -15586393   -58310.281 
    1120    9.0400714    -15591280            0    -15586455   -58308.772 
    1130    9.0618978    -15591354            0    -15586518   -58307.481 
    1140    9.0568235    -15591418            0    -15586584   -58305.869 
    1150    9.0245017    -15591468            0    -15586651   -58303.816 
    1160    9.0126331    -15591523            0    -15586713   -58301.938 
    1170    9.0408065    -15591594            0    -15586769   -58300.618 
    1180    9.0752295    -15591672            0    -15586829   -58299.539 
    1190    9.0779353    -15591740            0    -15586896   -58298.196 
    1200    9.0391271    -15591791            0    -15586967   -58296.251 
    1210     8.999921    -15591835            0    -15587032   -58294.064 
    1220    8.9929512    -15591887            0    -15587088   -58292.042 
    1230    9.0069194    -15591942            0    -15587135    -58290.11 
    1240    9.0373785    -15592003            0    -15587180   -58288.403 
    1250    9.0761074    -15592074            0    -15587230   -58287.057 
    1260    9.0879274    -15592142            0    -15587292   -58285.694 
    1270    9.0554552    -15592194            0    -15587361   -58283.915 
    1280    9.0167677    -15592241            0    -15587429   -58281.997 
    1290     9.007561    -15592296            0    -15587488   -58280.308 
    1300    9.0133109    -15592351            0    -15587541   -58278.632 
    1310    9.0113904    -15592400            0    -15587590   -58276.724 
    1320    9.0132658    -15592447            0    -15587637   -58274.849 
    1330    9.0279965    -15592500            0    -15587682   -58273.247 
    1340    9.0424286    -15592556            0    -15587730    -58271.81 
    1350    9.0590074    -15592617            0    -15587783   -58270.592 
    1360    9.0572041    -15592675            0    -15587842   -58269.225 
    1370    9.0338649    -15592724            0    -15587903   -58267.522 
    1380    9.0207276    -15592776            0    -15587962   -58265.854 
    1390    9.0245731    -15592833            0    -15588017   -58264.352 
    1400    9.0293787    -15592888            0    -15588070   -58262.853 
    1410    9.0404334    -15592947            0    -15588122    -58261.48 
    1420    9.0386674    -15593001            0    -15588177   -58259.951 
    1430    9.0009574    -15593035            0    -15588232   -58257.822 
    1440    8.9746926    -15593068            0    -15588279   -58255.672 
    1450    9.0051601    -15593122            0    -15588316   -58254.225 
    1460    9.0530058    -15593183            0    -15588352   -58253.136 
    1470    9.0572289    -15593231            0    -15588397   -58251.691 
    1480    9.0212882    -15593265            0    -15588450   -58249.832 
    1490    8.9884035    -15593297            0    -15588500   -58247.936 
    1500    8.9796697    -15593333            0    -15588541   -58246.178 
    1510    8.9983125    -15593376            0    -15588574   -58244.647 
    1520    9.0346132    -15593426            0    -15588605    -58243.41 
    1530     9.057833    -15593476            0    -15588642   -58242.265 
    1540    9.0555104    -15593523            0    -15588690    -58241.11 
    1550    9.0401229    -15593568            0    -15588744   -58239.962 
    1560    9.0166431    -15593610            0    -15588798   -58238.646 
    1570    8.9989189    -15593650            0    -15588847   -58237.204 
    1580    9.0041827    -15593695            0    -15588890   -58235.904 
    1590    9.0211781    -15593744            0    -15588930   -58234.711 
    1600    9.0303434    -15593790            0    -15588971   -58233.448 
    1610    9.0191917    -15593828            0    -15589014   -58231.919 
    1620    8.9944586    -15593857            0    -15589057   -58230.099 
    1630    8.9863478    -15593889            0    -15589094   -58228.321 
    1640    8.9991105    -15593927            0    -15589124   -58226.656 
    1650    9.0015577    -15593957            0    -15589153   -58224.735 
    1660    8.9981438    -15593982            0    -15589180   -58222.684 
    1670    9.0153936    -15594017            0    -15589205   -58220.957 
    1680     9.040335    -15594058            0    -15589234    -58219.49 
    1690    9.0414354    -15594095            0    -15589270   -58217.924 
    1700      9.02024    -15594126            0    -15589312   -58216.208 
    1710    8.9992689    -15594156            0    -15589353   -58214.499 
    1720    8.9959975    -15594191            0    -15589390   -58212.953 
    1730    9.0012693    -15594227            0    -15589423   -58211.449 
    1740    9.0095767    -15594262            0    -15589454   -58209.979 
    1750    9.0214025    -15594299            0    -15589485   -58208.628 
    1760    9.0223898    -15594333            0    -15589518   -58207.219 
    1770    9.0065812    -15594361            0    -15589554   -58205.604 
    1780    8.9903385    -15594386            0    -15589588    -58203.92 
    1790    8.9965884    -15594418            0    -15589617   -58202.479 
    1800    9.0348136    -15594465            0    -15589644   -58201.541 
    1810    9.0581506    -15594512            0    -15589677   -58200.607 
    1820      9.02522    -15594537            0    -15589720   -58199.055 
    1830    8.9765618    -15594553            0    -15589762   -58197.203 
    1840    8.9603401    -15594576            0    -15589794    -58195.55 
    1850    8.9739916    -15594603            0    -15589813   -58194.033 
    1860    9.0114247    -15594635            0    -15589826   -58192.696 
    1870    9.0515121    -15594672            0    -15589841   -58191.479 
    1880    9.0452397    -15594696            0    -15589868   -58189.869 
    1890    9.0038007    -15594708            0    -15589903   -58187.964 
    1900    8.9933669    -15594736            0    -15589936   -58186.552 
    1910    9.0119474    -15594774            0    -15589965   -58185.554 
    1920    9.0122597    -15594803            0    -15589994   -58184.279 
    1930    8.9927951    -15594822            0    -15590023   -58182.641 
    1940      8.98531    -15594844            0    -15590048   -58181.018 
    1950    8.9944625    -15594869            0    -15590069   -58179.469 
    1960    9.0015325    -15594890            0    -15590086   -58177.785 
    1970    9.0046107    -15594910            0    -15590104   -58176.033 
    1980    9.0084294    -15594929            0    -15590122   -58174.383 
    1990    9.0279127    -15594959            0    -15590141   -58173.173 
    2000     9.049242    -15594997            0    -15590167   -58172.313 
    2010    9.0329165    -15595023            0    -15590202   -58171.185 
    2020     8.994637    -15595040            0    -15590239   -58169.776 
    2030    8.9761178    -15595061            0    -15590270   -58168.479 
    2040    8.9834649    -15595087            0    -15590293   -58167.334 
    2050    8.9986139    -15595113            0    -15590310   -58166.127 
    2060    8.9967242    -15595128            0    -15590326   -58164.545 
    2070    8.9799997    -15595132            0    -15590340   -58162.606 
    2080    8.9778466    -15595140            0    -15590348   -58160.706 
    2090    9.0030077    -15595156            0    -15590351   -58159.073 
    2100    9.0354432    -15595176            0    -15590354   -58157.573 
    2110    9.0362376    -15595188            0    -15590366   -58155.848 
    2120    9.0175946    -15595198            0    -15590386   -58154.157 
    2130    9.0029943    -15595214            0    -15590409   -58152.765 
    2140    8.9980128    -15595234            0    -15590432    -58151.62 
    2150    9.0048043    -15595258            0    -15590452   -58150.646 
    2160     9.002464    -15595277            0    -15590472   -58149.499 
    2170    8.9884012    -15595289            0    -15590492   -58148.136 
    2180    8.9823484    -15595301            0    -15590507    -58146.82 
    2190    8.9948534    -15595318            0    -15590518   -58145.683 
    2200    9.0095871    -15595335            0    -15590527   -58144.527 
    2210    9.0085373    -15595345            0    -15590537   -58143.158 
    2220    9.0054684    -15595356            0    -15590550   -58141.814 
    2230    9.0051688    -15595369            0    -15590563   -58140.577 
    2240    8.9992857    -15595380            0    -15590577   -58139.323 
    2250    8.9880253    -15595387            0    -15590591   -58138.003 
    2260    8.9894482    -15595398            0    -15590600   -58136.799 
    2270    9.0112823    -15595417            0    -15590608   -58135.815 
    2280    9.0274525    -15595435            0    -15590617   -58134.788 
    2290    9.0256033    -15595450            0    -15590634   -58133.655 
    2300    9.0050332    -15595461            0    -15590655   -58132.374 
    2310    8.9834646    -15595469            0    -15590675   -58131.104 
    2320    8.9888484    -15595487            0    -15590690   -58130.238 
    2330    9.0119506    -15595511            0    -15590702   -58129.692 
    2340    9.0190422    -15595529            0    -15590716   -58129.013 
    2350    9.0079575    -15595541            0    -15590733   -58128.132 
    2360    9.0135971    -15595563            0    -15590752   -58127.473 
    2370    8.9952661    -15595573            0    -15590772   -58126.353 
    2380    8.9388318    -15595558            0    -15590787   -58124.417 
    2390    8.9400314    -15595558            0    -15590787   -58122.984 
    2400    9.0266628    -15595590            0    -15590772   -58122.622 
    2410    9.0880492    -15595614            0    -15590764   -58122.151 
    2420    9.0571437    -15595610            0    -15590776   -58120.881 
    2430    9.0011722    -15595605            0    -15590801   -58119.608 
    2440    8.9891375    -15595618            0    -15590821   -58118.918 
    2450      8.98993    -15595632            0    -15590835   -58118.282 
    2460    8.9849701    -15595640            0    -15590845   -58117.462 
    2470    8.9760412    -15595641            0    -15590851   -58116.489 
    2480    8.9860286    -15595646            0    -15590850   -58115.693 
    2490     9.022217    -15595661            0    -15590846   -58115.253 
    2500    9.0511066    -15595676            0    -15590846    -58114.88 
    2510    9.0429668    -15595686            0    -15590860   -58114.399 
    2520    9.0245776    -15595700            0    -15590884   -58114.154 
    2530    9.0237456    -15595720            0    -15590904   -58114.076 
    2540    9.0110245    -15595728            0    -15590919   -58113.573 
    2550    8.9880682    -15595727            0    -15590930   -58112.687 
    2560    8.9835942    -15595731            0    -15590936   -58111.866 
    2570    8.9969853    -15595739            0    -15590938   -58111.171 
    2580     9.007825    -15595745            0    -15590937   -58110.399 
    2590    9.0180137    -15595752            0    -15590939   -58109.703 
    2600    9.0235635    -15595765            0    -15590949   -58109.262 
    2610    9.0016336    -15595777            0    -15590973    -58108.93 
    2620    8.9885964    -15595792            0    -15590995   -58108.723 
    2630    8.9956425    -15595807            0    -15591006   -58108.472 
    2640     9.012095    -15595822            0    -15591012   -58108.184 
    2650    9.0212455    -15595835            0    -15591021   -58107.826 
    2660    9.0059366    -15595840            0    -15591034   -58107.298 
    2670    8.9905758    -15595846            0    -15591048   -58106.916 
    2680    9.0007806    -15595862            0    -15591059    -58106.92 
    2690    9.0201091    -15595883            0    -15591069   -58107.052 
    2700    8.9954389    -15595883            0    -15591082   -58106.556 
    2710    8.9589963    -15595872            0    -15591091   -58105.747 
    2720    8.9729051    -15595877            0    -15591088   -58105.467 
    2730    9.0161867    -15595896            0    -15591085    -58105.66 
    2740    9.0404861    -15595911            0    -15591086   -58105.654 
    2750    9.0304063    -15595916            0    -15591097   -58105.299 
    2760    9.0055607    -15595921            0    -15591115   -58104.904 
    2770    9.0009332    -15595934            0    -15591131   -58104.822 
    2780    9.0022695    -15595948            0    -15591143   -58104.739 
    2790    8.9927416    -15595953            0    -15591153   -58104.365 
    2800    8.9715279    -15595948            0    -15591160   -58103.641 
    2810     8.973128    -15595948            0    -15591159   -58103.066 
    2820    9.0253744    -15595965            0    -15591148    -58103.08 
    2830    9.0908584    -15595985            0    -15591133   -58103.241 
    2840    9.1079545    -15595994            0    -15591133   -58103.124 
    2850     9.044353    -15595993            0    -15591166   -58102.817 
    2860    8.9988965    -15595994            0    -15591192   -58102.598 
    2870    9.0002715    -15596006            0    -15591203   -58102.729 
    2880    8.9981379    -15596014            0    -15591212   -58102.787 
    2890    8.9916096    -15596018            0    -15591219   -58102.779 
    2900    9.0054789    -15596032            0    -15591226   -58103.062 
    2910    9.0184587    -15596047            0    -15591234   -58103.404 
    2920    9.0057722    -15596056            0    -15591249   -58103.531 
    2930    8.9850272    -15596062            0    -15591267   -58103.605 
    2940    8.9862088    -15596074            0    -15591278     -58103.9 
    2950    8.9921444    -15596084            0    -15591285   -58104.181 
    2960    8.9969706    -15596090            0    -15591289   -58104.441 
    2970    8.9938109    -15596092            0    -15591292   -58104.625 
    2980    8.9767794    -15596089            0    -15591299   -58104.713 
    2990    8.9673346    -15596092            0    -15591306   -58105.018 
    3000    8.9777664    -15596100            0    -15591309   -58105.497 
    3010    8.9962962    -15596106            0    -15591305   -58105.904 
    3020    9.0308735    -15596117            0    -15591298   -58106.471 
    3030    9.0567619    -15596131            0    -15591298   -58107.103 
    3040    9.0279618    -15596131            0    -15591312   -58107.368 
    3050    8.9714296    -15596122            0    -15591334   -58107.426 
    3060    8.9521538    -15596121            0    -15591343   -58107.721 
    3070    8.9928329    -15596139            0    -15591340   -58108.619 
    3080     9.032627    -15596154            0    -15591334   -58109.469 
    3090    9.0223472    -15596150            0    -15591335   -58109.761 
    3100    8.9890467    -15596142            0    -15591345   -58110.025 
    3110     8.970294    -15596152            0    -15591365   -58110.944 
    3120    8.9675241    -15596173            0    -15591387   -58112.258 
    3130    8.9613688    -15596182            0    -15591400   -58113.162 
    3140    8.9480711    -15596176            0    -15591401   -58113.483 
    3150    8.9691853    -15596174            0    -15591387   -58113.858 
    3160    9.0147976    -15596176            0    -15591365   -58114.399 
    3170    9.0306653    -15596174            0    -15591355   -58114.873 
    3180    9.0236246    -15596171            0    -15591356   -58115.337 
    3190    9.0051367    -15596166            0    -15591360   -58115.692 
    3200    8.9803096    -15596156            0    -15591364   -58115.885 
    3210    8.9771583    -15596153            0    -15591362   -58116.268 
    3220    9.0047161    -15596158            0    -15591353   -58116.948 
    3230    9.0264425    -15596157            0    -15591340   -58117.406 
    3240    9.0268504    -15596143            0    -15591326   -58117.507 
    3250    9.0499229    -15596141            0    -15591311    -58117.99 
    3260      9.09075    -15596152            0    -15591301   -58118.991 
    3270    9.0850635    -15596162            0    -15591313   -58120.021 
    3280    9.0226641    -15596164            0    -15591349   -58120.905 
    3290    8.9975531    -15596169            0    -15591367   -58121.776 
    3300    8.9886146    -15596172            0    -15591375    -58122.59 
    3310    8.9727639    -15596168            0    -15591379   -58123.126 
    3320    8.9657976    -15596160            0    -15591375   -58123.508 
    3330    8.9801514    -15596153            0    -15591361   -58123.829 
    3340    9.0077842    -15596148            0    -15591341   -58124.168 
    3350     9.020212    -15596141            0    -15591327   -58124.532 
    3360    9.0253541    -15596138            0    -15591321   -58125.179 
    3370    9.0344181    -15596144            0    -15591322   -58126.224 
    3380    9.0300944    -15596152            0    -15591333   -58127.385 
    3390    9.0062435    -15596159            0    -15591353   -58128.554 
    3400    8.9885569    -15596169            0    -15591372   -58129.754 
    3410    8.9876962    -15596175            0    -15591379   -58130.775 
    3420    8.9907121    -15596177            0    -15591379     -58131.6 
    3430    8.9980469    -15596178            0    -15591376    -58132.43 
    3440    9.0138922    -15596184            0    -15591374   -58133.418 
    3450    9.0153515    -15596185            0    -15591374   -58134.277 
    3460    9.0079112    -15596186            0    -15591378   -58135.115 
    3470    9.0020523    -15596193            0    -15591389   -58136.128 
    3480    8.9829708    -15596202            0    -15591408   -58137.117 
    3490    8.9506494    -15596203            0    -15591426   -58137.793 
    3500    8.9400649    -15596203            0    -15591432   -58138.311 
    3510    8.9519744    -15596198            0    -15591420   -58138.575 
    3520    8.9714334    -15596182            0    -15591394   -58138.415 
    3530    8.9860994    -15596172            0    -15591376   -58138.426 
    3540    8.9994938    -15596171            0    -15591368   -58138.803 
    3550    9.0071019    -15596169            0    -15591362   -58139.229 
    3560    9.0114196    -15596168            0    -15591358   -58139.698 
    3570    9.0251104    -15596173            0    -15591357   -58140.381 
    3580    9.0158239    -15596173            0    -15591362   -58140.824 
    3590    8.9746263    -15596162            0    -15591372   -58140.909 
    3600    8.9491921    -15596156            0    -15591380   -58141.208 
    3610     8.974121    -15596165            0    -15591376   -58142.026 
    3620    9.0195534    -15596172            0    -15591359   -58142.799 
    3630     9.057624    -15596174            0    -15591340   -58143.441 
    3640    9.0842109    -15596184            0    -15591336   -58144.393 
    3650    9.0542963    -15596186            0    -15591354   -58145.181 
    3660    8.9844185    -15596174            0    -15591379   -58145.552 
    3670    8.9599972    -15596167            0    -15591385   -58146.019 
    3680    8.9834048    -15596174            0    -15591380   -58146.882 
    3690    9.0068862    -15596179            0    -15591372   -58147.578 
    3700    9.0076801    -15596172            0    -15591364   -58147.877 
    3710    9.0085447    -15596165            0    -15591357   -58148.175 
    3720    9.0194881    -15596164            0    -15591351   -58148.661 
    3730    9.0342501    -15596167            0    -15591345   -58149.319 
    3740    9.0414988    -15596172            0    -15591347   -58150.141 
    3750    9.0266821    -15596181            0    -15591364   -58151.182 
    3760    8.9976499    -15596193            0    -15591391   -58152.307 
    3770    8.9799814    -15596199            0    -15591406   -58153.179 
    3780    8.9767096    -15596202            0    -15591412   -58153.832 
    3790    8.9712415    -15596197            0    -15591409   -58154.135 
    3800    8.9826989    -15596192            0    -15591398   -58154.428 
    3810    9.0152281    -15596192            0    -15591381   -58154.888 
    3820    9.0368578    -15596191            0    -15591368   -58155.327 
    3830    9.0366975    -15596187            0    -15591365   -58155.757 
    3840    9.0157281    -15596182            0    -15591370   -58156.167 
    3850    8.9766001    -15596173            0    -15591383    -58156.53 
    3860    8.9381981    -15596171            0    -15591401   -58157.175 
    3870    8.9261847    -15596190            0    -15591426   -58158.476 
    3880    8.9532019    -15596218            0    -15591439   -58159.947 
    3890    8.9686299    -15596227            0    -15591441   -58160.643 
    3900    8.9708165    -15596219            0    -15591431   -58160.611 
    3910    9.0194646    -15596220            0    -15591407   -58160.784 
    3920    9.0650208    -15596227            0    -15591389   -58161.093 
    3930    9.0579042    -15596224            0    -15591390    -58161.15 
    3940    9.0245586    -15596218            0    -15591402   -58161.065 
    3950     8.987109    -15596209            0    -15591413   -58160.885 
    3960    8.9732673    -15596205            0    -15591416   -58160.925 
    3970    8.9860312    -15596208            0    -15591412   -58161.257 
    3980    8.9927317    -15596204            0    -15591405   -58161.403 
    3990    9.0030271    -15596201            0    -15591396   -58161.513 
    4000     9.024383    -15596203            0    -15591387   -58161.759 
    4010    9.0388051    -15596206            0    -15591382   -58161.973 
    4020    9.0369254    -15596210            0    -15591387   -58162.216 
    4030    9.0084283    -15596222            0    -15591414   -58162.781 
    4040    8.9782056    -15596231            0    -15591440   -58163.263 
    4050    8.9635657    -15596234            0    -15591450   -58163.448 
    4060    8.9714152    -15596238            0    -15591450   -58163.582 
    4070    8.9867833    -15596237            0    -15591441   -58163.495 
    4080    8.9951864    -15596226            0    -15591426   -58163.062 
    4090    9.0081607    -15596217            0    -15591409   -58162.667 
    4100    9.0279827    -15596215            0    -15591397   -58162.605 
    4110    9.0387379    -15596217            0    -15591393   -58162.763 
    4120    9.0407181    -15596224            0    -15591399   -58163.154 
    4130    9.0234449    -15596233            0    -15591417   -58163.661 
    4140    9.0004348    -15596243            0    -15591440   -58164.261 
    4150    9.0134883    -15596260            0    -15591450   -58165.069 
    4160    9.0241574    -15596271            0    -15591455   -58165.715 
    4170     9.005057    -15596269            0    -15591463   -58166.005 
    4180     9.006088    -15596277            0    -15591471   -58166.687 
    4190     9.020372    -15596295            0    -15591481   -58167.651 
    4200    8.9939921    -15596297            0    -15591497   -58168.087 
    4210    8.9574096    -15596290            0    -15591509   -58168.278 
    4220    8.9781055    -15596303            0    -15591511   -58169.099 
    4230    9.0286703    -15596325            0    -15591507   -58170.181 
    4240    9.0255701    -15596323            0    -15591506   -58170.378 
    4250    8.9684998    -15596301            0    -15591515   -58169.851 
    4260     8.947163    -15596298            0    -15591523   -58169.809 
    4270    8.9787442    -15596312            0    -15591520    -58170.24 
    4280    9.0139682    -15596318            0    -15591508   -58170.487 
    4290    9.0369451    -15596319            0    -15591496   -58170.582 
    4300    9.0423553    -15596319            0    -15591493   -58170.656 
    4310    9.0162767    -15596313            0    -15591501   -58170.584 
    4320    8.9692615    -15596303            0    -15591517   -58170.467 
    4330    8.9353754    -15596297            0    -15591528   -58170.488 
    4340    8.9526109    -15596302            0    -15591525   -58170.887 
    4350    9.0283918    -15596320            0    -15591501   -58171.588 
    4360    9.0846503    -15596330            0    -15591481   -58172.045 
    4370    9.0697452    -15596325            0    -15591485    -58172.08 
    4380    9.0225285    -15596315            0    -15591500   -58171.992 
    4390    9.0124489    -15596321            0    -15591511   -58172.405 
    4400    9.0303384    -15596338            0    -15591518   -58173.171 
    4410    9.0287151    -15596347            0    -15591529   -58173.677 
    4420    9.0104163    -15596351            0    -15591543   -58173.951 
    4430    8.9893129    -15596352            0    -15591555   -58174.077 
    4440    8.9624897    -15596344            0    -15591561   -58173.879 
    4450    8.9528583    -15596335            0    -15591557   -58173.591 
    4460    8.9795668    -15596332            0    -15591540   -58173.454 
    4470    9.0134551    -15596332            0    -15591521   -58173.355 
    4480    9.0221832    -15596330            0    -15591515   -58173.268 
    4490    9.0297413    -15596335            0    -15591516   -58173.475 
    4500    9.0298965    -15596342            0    -15591523    -58173.79 
    4510     9.007234    -15596342            0    -15591535   -58173.915 
    4520    8.9895419    -15596345            0    -15591548    -58174.12 
    4530    8.9791911    -15596348            0    -15591556    -58174.36 
    4540    8.9911871    -15596357            0    -15591558   -58174.862 
    4550    9.0271961    -15596376            0    -15591559   -58175.701 
    4560    9.0291276    -15596388            0    -15591569   -58176.249 
    4570    8.9561517    -15596379            0    -15591599   -58176.133 
    4580    8.9211876    -15596374            0    -15591613   -58176.106 
    4590    8.9738698    -15596395            0    -15591606   -58176.829 
    4600    9.0332176    -15596414            0    -15591593   -58177.445 
    4610    9.0240307    -15596404            0    -15591588   -58177.118 
    4620    8.9961027    -15596390            0    -15591589   -58176.615 
    4630    9.0030717    -15596395            0    -15591590   -58176.695 
    4640    9.0315365    -15596412            0    -15591592   -58177.218 
    4650    9.0210159    -15596422            0    -15591608   -58177.551 
    4660    8.9655168    -15596417            0    -15591632   -58177.397 
    4670    8.9311682    -15596409            0    -15591643   -58177.046 
    4680    8.9585173    -15596416            0    -15591635   -58177.059 
    4690    9.0150237    -15596428            0    -15591617   -58177.213 
    4700     9.045187    -15596433            0    -15591606   -58177.162 
    4710    9.0329351    -15596427            0    -15591607   -58176.844 
    4720    9.0079331    -15596423            0    -15591615   -58176.613 
    4730    8.9984827    -15596429            0    -15591627   -58176.784 
    4740    8.9913705    -15596440            0    -15591641   -58177.134 
    4750    8.9725127    -15596450            0    -15591661   -58177.519 
    4760    8.9399522    -15596458            0    -15591687   -58177.875 
    4770    8.9323878    -15596470            0    -15591703   -58178.265 
    4780    8.9596767    -15596484            0    -15591702   -58178.587 
    4790    9.0199783    -15596495            0    -15591681   -58178.735 
    4800    9.0975541    -15596501            0    -15591646   -58178.607 
    4810    9.0928968    -15596495            0    -15591642   -58178.178 
    4820    9.0523918    -15596488            0    -15591657   -58177.792 
    4830     9.018209    -15596486            0    -15591674   -58177.595 
    4840     8.981439    -15596479            0    -15591686   -58177.249 
    4850    8.9726052    -15596479            0    -15591691   -58177.166 
    4860    8.9955734    -15596489            0    -15591688   -58177.418 
    4870    9.0163183    -15596494            0    -15591682    -58177.52 
    4880    9.0232478    -15596494            0    -15591678   -58177.367 
    4890    9.0139336    -15596489            0    -15591678   -58177.041 
    4900    8.9997331    -15596486            0    -15591683   -58176.845 
    4910    9.0000471    -15596496            0    -15591693   -58177.099 
    4920    9.0044816    -15596513            0    -15591707   -58177.578 
    4930    8.9983891    -15596526            0    -15591724   -58177.925 
    4940     8.985591    -15596534            0    -15591739   -58178.009 
    4950    8.9692279    -15596535            0    -15591748   -58177.765 
    4960    8.9691167    -15596535            0    -15591748   -58177.491 
    4970    9.0041583    -15596544            0    -15591739   -58177.511 
    4980    9.0573106    -15596558            0    -15591724   -58177.639 
    4990    9.0726042    -15596554            0    -15591713   -58177.244 
    5000    9.0337783    -15596536            0    -15591715   -58176.404 
    5010    8.9774861    -15596523            0    -15591732   -58175.849 
    5020    8.9720244    -15596536            0    -15591748   -58176.178 
    5030    9.0044253    -15596564            0    -15591758   -58176.908 
    5040    9.0086927    -15596576            0    -15591769   -58177.172 
    5050    8.9856014    -15596577            0    -15591782   -58177.067 
    5060    8.9812695    -15596586            0    -15591793   -58177.201 
    5070    8.9900575    -15596600            0    -15591802   -58177.446 
    5080    8.9786573    -15596605            0    -15591813   -58177.406 
    5090    8.9496279    -15596607            0    -15591830   -58177.281 
    5100    8.9357291    -15596614            0    -15591845   -58177.349 
    5110     8.958999    -15596627            0    -15591846   -58177.582 
    5120    8.9998643    -15596636            0    -15591833   -58177.602 
    5130    9.0388633    -15596638            0    -15591814   -58177.363 
    5140    9.0627867    -15596641            0    -15591804    -58177.17 
    5150    9.0544275    -15596642            0    -15591810    -58176.99 
    5160    9.0065003    -15596639            0    -15591832   -58176.697 
    5170    8.9759466    -15596643            0    -15591853   -58176.546 
    5180    8.9885664    -15596655            0    -15591858   -58176.544 
    5190     9.006733    -15596664            0    -15591857   -58176.473 
    5200    9.0169345    -15596671            0    -15591858   -58176.326 
    5210    9.0112215    -15596672            0    -15591863   -58176.048 
    5220    8.9919621    -15596670            0    -15591871   -58175.659 
    5230    8.9743488    -15596669            0    -15591879    -58175.29 
    5240    8.9624771    -15596667            0    -15591884   -58174.881 
    5250    8.9660201    -15596664            0    -15591879   -58174.381 
    5260    9.0062471    -15596665            0    -15591858   -58173.924 
    5270    9.0569858    -15596671            0    -15591837   -58173.687 
    5280    9.0778556    -15596679            0    -15591834   -58173.618 
    5290    9.0509808    -15596681            0    -15591850   -58173.469 
    5300    9.0197013    -15596686            0    -15591873   -58173.524 
    5310      9.03401    -15596709            0    -15591888   -58174.104 
    5320    9.0471437    -15596730            0    -15591902   -58174.626 
    5330    9.0111631    -15596728            0    -15591919   -58174.376 
    5340    8.9549165    -15596710            0    -15591931   -58173.554 
    5350    8.9544803    -15596709            0    -15591930   -58173.198 
    5360    9.0046781    -15596723            0    -15591917    -58173.36 
    5370    9.0469383    -15596734            0    -15591906   -58173.482 
    5380    9.0631361    -15596742            0    -15591906   -58173.578 
    5390    9.0286172    -15596742            0    -15591923   -58173.424 
    5400    8.9726404    -15596737            0    -15591949   -58173.134 
    5410    8.9595358    -15596737            0    -15591956   -58172.922 
    5420    8.9893609    -15596749            0    -15591952   -58173.072 
    5430    9.0314545    -15596767            0    -15591947   -58173.459 
    5440     9.043413    -15596776            0    -15591950   -58173.636 
    5450    9.0292826    -15596783            0    -15591965   -58173.757 
    5460    9.0136306    -15596796            0    -15591985    -58174.04 
    5470    9.0067715    -15596808            0    -15592001   -58174.249 
    5480    8.9821513    -15596804            0    -15592010   -58173.882 
    5490    8.9769595    -15596802            0    -15592011   -58173.583 
    5500     9.004046    -15596811            0    -15592006   -58173.647 
    5510    9.0159722    -15596814            0    -15592002   -58173.479 
    5520    8.9949002    -15596800            0    -15592000    -58172.87 
    5530    8.9954989    -15596796            0    -15591995   -58172.527 
    5540     9.034306    -15596800            0    -15591979   -58172.468 
    5550    9.0634531    -15596798            0    -15591961   -58172.203 
    5560    9.0626589    -15596794            0    -15591957   -58171.902 
    5570    9.0319755    -15596790            0    -15591970   -58171.677 
    5580    8.9953399    -15596793            0    -15591993   -58171.667 
    5590    8.9842623    -15596802            0    -15592008   -58171.792 
    5600    8.9923286    -15596812            0    -15592013   -58171.904 
    5610    9.0143081    -15596825            0    -15592015   -58172.126 
    5620    9.0152997    -15596830            0    -15592019   -58172.075 
    5630    8.9991203    -15596828            0    -15592026   -58171.875 
    5640    9.0021549    -15596838            0    -15592034   -58172.117 
    5650    9.0031709    -15596853            0    -15592048    -58172.63 
    5660    8.9647858    -15596864            0    -15592080   -58173.064 
    5670    8.9318502    -15596866            0    -15592099   -58173.071 
    5680    8.9211826    -15596856            0    -15592095   -58172.559 
    5690    8.9414062    -15596849            0    -15592077    -58172.04 
    5700    8.9933562    -15596857            0    -15592057   -58171.955 
    5710    9.0288196    -15596865            0    -15592046   -58171.847 
    5720    9.0461646    -15596872            0    -15592044   -58171.765 
    5730    9.0368461    -15596877            0    -15592054   -58171.693 
    5740    9.0014078    -15596877            0    -15592073   -58171.558 
    5750     8.990848    -15596887            0    -15592088   -58171.723 
    5760    9.0006747    -15596900            0    -15592097   -58171.925 
    5770    8.9860134    -15596897            0    -15592102   -58171.514 
    5780    8.9607935    -15596884            0    -15592101   -58170.689 
    5790    8.9800771    -15596884            0    -15592092   -58170.273 
    5800    9.0265055    -15596894            0    -15592077   -58170.189 
    5810    9.0442687    -15596897            0    -15592070   -58169.947 
    5820     9.045038    -15596902            0    -15592075   -58169.809 
    5830    9.0336686    -15596904            0    -15592083   -58169.615 
    5840    9.0125385    -15596900            0    -15592090   -58169.269 
    5850    9.0142222    -15596908            0    -15592097   -58169.326 
    5860    9.0132766    -15596917            0    -15592107   -58169.413 
    5870     8.983548    -15596913            0    -15592119   -58169.071 
    5880    8.9648391    -15596912            0    -15592127   -58168.763 
    5890    8.9897659    -15596925            0    -15592127   -58168.958 
    5900    9.0341782    -15596944            0    -15592122   -58169.419 
    5910    9.0429453    -15596950            0    -15592124   -58169.562 
    5920     8.996025    -15596943            0    -15592142    -58169.35 
    5930    8.9472235    -15596939            0    -15592164   -58169.222 
    5940    8.9559741    -15596950            0    -15592170     -58169.5 
    5950    9.0012583    -15596969            0    -15592165   -58169.946 
    5960    9.0123613    -15596967            0    -15592157   -58169.689 
    5970    8.9986219    -15596951            0    -15592148    -58168.91 
    5980    9.0188507    -15596944            0    -15592131   -58168.317 
    5990    9.0685331    -15596946            0    -15592107   -58167.959 
    6000    9.0981245    -15596954            0    -15592098   -58167.865 
    6010    9.0918868    -15596968            0    -15592116   -58168.108 
    6020    9.0574563    -15596977            0    -15592143   -58168.278 
    6030    9.0144931    -15596969            0    -15592158   -58167.895 
    6040    8.9967518    -15596970            0    -15592169   -58167.762 
    6050    9.0027153    -15596982            0    -15592178    -58167.96 
    6060     9.000451    -15596990            0    -15592186   -58168.092 
    6070    9.0031653    -15597001            0    -15592196   -58168.393 
    6080    8.9995215    -15597010            0    -15592207   -58168.674 
    6090    8.9765448    -15597009            0    -15592219   -58168.639 
    6100    8.9699473    -15597012            0    -15592225   -58168.668 
    6110    8.9967978    -15597026            0    -15592225   -58168.968 
    6120    9.0275974    -15597039            0    -15592221   -58169.196 
    6130    9.0348959    -15597044            0    -15592223   -58169.165 
    6140    8.9946213    -15597036            0    -15592236    -58168.74 
    6150    8.9371047    -15597021            0    -15592252   -58168.122 
    6160    8.9392591    -15597023            0    -15592252   -58168.004 
    6170    8.9998609    -15597039            0    -15592236   -58168.272 
    6180    9.0433167    -15597045            0    -15592219   -58168.167 
    6190    9.0427786    -15597040            0    -15592214   -58167.706 
    6200    9.0197646    -15597034            0    -15592220   -58167.257 
    6210    8.9957567    -15597032            0    -15592231   -58167.054 
    6220    8.9763292    -15597035            0    -15592244   -58167.091 
    6230    8.9725674    -15597048            0    -15592260   -58167.577 
    6240    8.9646738    -15597071            0    -15592287   -58168.475 
    6250    8.9549727    -15597091            0    -15592312   -58169.218 
    6260    8.9643261    -15597102            0    -15592318   -58169.464 
    6270    8.9732386    -15597103            0    -15592314   -58169.142 
    6280    8.9571209    -15597083            0    -15592303   -58168.031 
    6290    8.9558057    -15597064            0    -15592284   -58166.858 
    6300    8.9950782    -15597068            0    -15592268   -58166.483 
    6310    9.0379728    -15597084            0    -15592261   -58166.602 
    6320    9.0396275    -15597089            0    -15592264   -58166.444 
    6330    9.0031081    -15597081            0    -15592276   -58166.008 
    6340    8.9950594    -15597089            0    -15592288   -58166.154 
    6350    9.0162167    -15597111            0    -15592299   -58166.812 
    6360    9.0097776    -15597121            0    -15592313   -58167.115 
    6370    8.9682486    -15597114            0    -15592328    -58166.78 
    6380    8.9424558    -15597105            0    -15592332   -58166.286 
    6390     8.960641    -15597105            0    -15592322   -58165.995 
    6400    8.9986575    -15597110            0    -15592308   -58165.856 
    6410    9.0327329    -15597123            0    -15592302   -58166.021 
    6420    9.0513648    -15597137            0    -15592306   -58166.315 
    6430    9.0385528    -15597144            0    -15592320   -58166.463 
    6440    9.0086748    -15597147            0    -15592339   -58166.515 
    6450    8.9819514    -15597148            0    -15592354   -58166.448 
    6460    8.9590236    -15597142            0    -15592361   -58166.112 
    6470    8.9708869    -15597143            0    -15592356   -58165.951 
    6480    9.0066487    -15597149            0    -15592342   -58165.907 
    6490    9.0381651    -15597152            0    -15592328   -58165.851 
    6500    9.0645067    -15597161            0    -15592323   -58166.065 
    6510     9.041829    -15597162            0    -15592336   -58166.099 
    6520    8.9630767    -15597152            0    -15592369   -58165.864 
    6530    8.9418567    -15597153            0    -15592381   -58165.826 
    6540    8.9721056    -15597164            0    -15592376   -58165.977 
    6550    8.9994093    -15597169            0    -15592366   -58165.846 
    6560    9.0049613    -15597163            0    -15592357   -58165.298 
    6570    9.0016936    -15597153            0    -15592349   -58164.647 
    6580    9.0082773    -15597148            0    -15592340   -58164.235 
    6590    9.0425263    -15597157            0    -15592331   -58164.368 
    6600    9.0688761    -15597170            0    -15592330   -58164.669 
    6610    9.0262605    -15597170            0    -15592353   -58164.643 
    6620    8.9750364    -15597172            0    -15592382    -58164.73 
    6630    8.9800816    -15597184            0    -15592391   -58165.071 
    6640    9.0063352    -15597199            0    -15592392    -58165.53 
    6650    9.0361305    -15597217            0    -15592395   -58166.094 
    6660     9.030084    -15597226            0    -15592407   -58166.368 
    6670    8.9798232    -15597219            0    -15592426   -58166.158 
    6680    8.9381633    -15597207            0    -15592437   -58165.774 
    6690    8.9391283    -15597202            0    -15592431   -58165.498 
    6700    8.9925604    -15597213            0    -15592414   -58165.649 
    6710    9.0275558    -15597222            0    -15592404   -58165.678 
    6720    9.0125604    -15597214            0    -15592404   -58165.202 
    6730    9.0060833    -15597213            0    -15592406   -58164.989 
    6740    9.0226966    -15597225            0    -15592410   -58165.285 
    6750    9.0264237    -15597236            0    -15592419   -58165.631 
    6760    9.0058137    -15597243            0    -15592437   -58165.849 
    6770    8.9740657    -15597244            0    -15592454   -58165.841 
    6780    8.9617327    -15597244            0    -15592461   -58165.718 
    6790    8.9792579    -15597249            0    -15592457   -58165.711 
    6800    9.0075469    -15597259            0    -15592452   -58165.794 
    6810    8.9965278    -15597251            0    -15592450   -58165.318 
    6820    8.9772603    -15597238            0    -15592447   -58164.685 
    6830    9.0100711    -15597249            0    -15592440   -58164.806 
    6840    9.0383392    -15597260            0    -15592436   -58164.977 
    6850    9.0148457    -15597253            0    -15592441   -58164.624 
    6860    8.9856895    -15597250            0    -15592455   -58164.521 
    6870    8.9644289    -15597260            0    -15592476   -58164.942 
    6880     8.946582    -15597273            0    -15592499   -58165.471 
    6890    8.9445623    -15597281            0    -15592508   -58165.717 
    6900    8.9586637    -15597282            0    -15592501   -58165.619 
    6910    9.0083058    -15597287            0    -15592480   -58165.554 
    6920    9.0383083    -15597283            0    -15592460   -58165.181 
    6930    9.0154354    -15597266            0    -15592455   -58164.472 
    6940    9.0024298    -15597260            0    -15592456   -58164.088 
    6950    9.0042967    -15597262            0    -15592456   -58163.954 
    6960    8.9984281    -15597260            0    -15592457   -58163.744 
    6970     9.003392    -15597263            0    -15592458   -58163.776 
    6980    9.0228357    -15597275            0    -15592459   -58164.149 
    6990    9.0014529    -15597272            0    -15592468   -58164.081 
    7000    8.9533465    -15597260            0    -15592482   -58163.706 
    7010    8.9437187    -15597262            0    -15592489   -58163.719 
    7020    8.9914673    -15597280            0    -15592481   -58164.204 
    7030    9.0494307    -15597294            0    -15592464   -58164.501 
    7040    9.0549168    -15597286            0    -15592454   -58164.075 
    7050     9.014619    -15597266            0    -15592456   -58163.257 
    7060    8.9791997    -15597256            0    -15592464   -58162.795 
    7070    8.9935238    -15597275            0    -15592476   -58163.273 
    7080    9.0167983    -15597304            0    -15592492   -58164.079 
    7090    8.9891994    -15597313            0    -15592515   -58164.214 
    7100    8.9568012    -15597309            0    -15592529   -58163.907 
    7110    8.9744194    -15597319            0    -15592530    -58163.94 
    7120    9.0141702    -15597334            0    -15592524   -58164.129 
    7130    9.0214993    -15597335            0    -15592520   -58163.873 
    7140    9.0032075    -15597327            0    -15592522   -58163.395 
    7150     8.979472    -15597318            0    -15592526   -58163.008 
    7160    8.9665915    -15597315            0    -15592530   -58162.838 
    7170    8.9957961    -15597326            0    -15592526   -58163.115 
    7180    9.0330033    -15597338            0    -15592518   -58163.401 
    7190    9.0302553    -15597335            0    -15592516   -58163.262 
    7200    9.0067345    -15597328            0    -15592521   -58163.123 
    7210    9.0140389    -15597342            0    -15592531   -58163.714 
    7220    9.0256919    -15597364            0    -15592547   -58164.587 
    7230    8.9892462    -15597366            0    -15592569   -58164.761 
    7240    8.9502053    -15597357            0    -15592580   -58164.498 
    7250    8.9575892    -15597357            0    -15592577   -58164.499 
    7260    8.9931767    -15597364            0    -15592565   -58164.667 
    7270    9.0101333    -15597362            0    -15592554   -58164.511 
    7280    8.9976503    -15597350            0    -15592548   -58163.959 
    7290    8.9974662    -15597345            0    -15592543   -58163.642 
    7300    9.0300503    -15597360            0    -15592541   -58163.962 
    7310    9.0449594    -15597372            0    -15592545   -58164.261 
    7320    9.0067972    -15597361            0    -15592554   -58163.905 
    7330    8.9796625    -15597352            0    -15592560   -58163.653 
    7340    9.0098136    -15597367            0    -15592559   -58164.232 
    7350    9.0504171    -15597391            0    -15592561   -58165.101 
    7360    9.0301711    -15597392            0    -15592573   -58165.273 
    7370    8.9782597    -15597380            0    -15592589   -58164.964 
    7380    8.9681598    -15597380            0    -15592594   -58164.967 
    7390    8.9815365    -15597384            0    -15592591   -58165.079 
    7400    8.9920951    -15597384            0    -15592585   -58165.082 
    7410    9.0110151    -15597388            0    -15592579   -58165.262 
    7420    9.0204112    -15597392            0    -15592578   -58165.395 
    7430    9.0008778    -15597384            0    -15592581   -58165.136 
    7440    8.9837724    -15597377            0    -15592583   -58164.846 
    7450    8.9802994    -15597372            0    -15592580   -58164.644 
    7460    8.9904076    -15597369            0    -15592571    -58164.54 
    7470    9.0340588    -15597380            0    -15592559   -58164.871 
    7480    9.0800522    -15597393            0    -15592547   -58165.219 
    7490    9.0732131    -15597386            0    -15592544   -58164.878 
    7500    8.9962054    -15597362            0    -15592561   -58164.038 
    7510    8.9507709    -15597356            0    -15592579   -58163.803 
    7520    8.9686982    -15597370            0    -15592583   -58164.236 
    7530    8.9956628    -15597380            0    -15592579   -58164.565 
    7540    9.0111867    -15597381            0    -15592572   -58164.602 
    7550    9.0247188    -15597381            0    -15592565   -58164.619 
    7560    9.0457494    -15597390            0    -15592563    -58164.88 
    7570     9.040685    -15597399            0    -15592574   -58165.092 
    7580    8.9895214    -15597397            0    -15592599   -58165.002 
    7590    8.9665511    -15597400            0    -15592615    -58165.09 
    7600      9.00163    -15597422            0    -15592618   -58165.734 
    7610    9.0483997    -15597450            0    -15592621   -58166.549 
    7620    9.0488969    -15597463            0    -15592634   -58166.908 
    7630    9.0037332    -15597459            0    -15592654   -58166.723 
    7640    8.9722768    -15597452            0    -15592664   -58166.449 
    7650    8.9657805    -15597448            0    -15592663   -58166.264 
    7660    8.9725832    -15597443            0    -15592654   -58166.079 
    7670    8.9903253    -15597439            0    -15592641   -58165.921 
    7680    9.0170285    -15597440            0    -15592628   -58165.914 
    7690    9.0281332    -15597440            0    -15592622   -58165.851 
    7700    9.0135948    -15597433            0    -15592623   -58165.585 
    7710    8.9901537    -15597425            0    -15592627   -58165.258 
    7720    8.9777098    -15597420            0    -15592629   -58165.039 
    7730    8.9952391    -15597424            0    -15592624   -58165.027 
    7740    9.0418226    -15597432            0    -15592606   -58165.022 
    7750    9.0625849    -15597430            0    -15592593   -58164.719 
    7760    9.0424174    -15597421            0    -15592595   -58164.276 
    7770    9.0191724    -15597423            0    -15592610   -58164.253 
    7780    9.0079483    -15597436            0    -15592629   -58164.657 
    7790    9.0053616    -15597452            0    -15592646   -58165.142 
    7800    9.0016448    -15597461            0    -15592657   -58165.486 
    7810    9.0013074    -15597469            0    -15592665   -58165.804 
    7820    9.0148647    -15597482            0    -15592671   -58166.286 
    7830    9.0058683    -15597486            0    -15592680   -58166.397 
    7840     8.958898    -15597469            0    -15592688   -58165.825 
    7850    8.9483859    -15597461            0    -15592686   -58165.488 
    7860    9.0135144    -15597471            0    -15592661   -58165.612 
    7870     9.075374    -15597474            0    -15592630   -58165.491 
    7880    9.0628938    -15597466            0    -15592629   -58165.159 
    7890    9.0158572    -15597451            0    -15592640   -58164.669 
    7900    8.9634568    -15597433            0    -15592650   -58164.083 
    7910    8.9619958    -15597432            0    -15592649   -58164.005 
    7920    9.0069115    -15597446            0    -15592639   -58164.358 
    7930    9.0426045    -15597454            0    -15592628   -58164.558 
    7940    9.0558509    -15597458            0    -15592625   -58164.695 
    7950    9.0340894    -15597462            0    -15592640   -58164.844 
    7960    8.9773673    -15597463            0    -15592672   -58164.962 
    7970    8.9733315    -15597475            0    -15592686   -58165.312 
    7980    9.0088164    -15597495            0    -15592687   -58165.947 
    7990    9.0263578    -15597507            0    -15592690   -58166.348 
    8000    9.0037079    -15597503            0    -15592698   -58166.267 
    8010     8.983292    -15597503            0    -15592708    -58166.27 
    8020    8.9886669    -15597514            0    -15592717   -58166.628 
    8030    8.9897229    -15597523            0    -15592725   -58166.915 
    8040     8.962918    -15597521            0    -15592738   -58166.862 
    8050    8.9394315    -15597520            0    -15592750   -58166.832 
    8060    8.9513522    -15597527            0    -15592750   -58166.984 
    8070    8.9930192    -15597533            0    -15592733   -58167.038 
    8080    9.0292981    -15597531            0    -15592712   -58166.765 
    8090    9.0212932    -15597515            0    -15592701   -58166.056 
    8100    8.9948023    -15597496            0    -15592696   -58165.266 
    8110    9.0004339    -15597494            0    -15592691   -58165.049 
    8120    9.0250084    -15597500            0    -15592684   -58165.227 
    8130    9.0386431    -15597504            0    -15592680   -58165.424 
    8140     9.021118    -15597501            0    -15592687    -58165.51 
    8150    8.9828523    -15597502            0    -15592708   -58165.763 
    8160    8.9627401    -15597509            0    -15592726   -58166.201 
    8170    8.9759672    -15597523            0    -15592733   -58166.768 
    8180    9.0199492    -15597547            0    -15592733   -58167.593 
    8190    9.0354375    -15597560            0    -15592738   -58168.059 
    8200    8.9935262    -15597555            0    -15592755   -58167.929 
    8210    8.9524546    -15597551            0    -15592774   -58167.845 
    8220    8.9544433    -15597558            0    -15592780   -58168.051 
    8230    8.9845073    -15597568            0    -15592773   -58168.285 
    8240    9.0043733    -15597563            0    -15592757   -58167.962 
    8250    9.0219355    -15597546            0    -15592731   -58167.152 
    8260    9.0433791    -15597535            0    -15592709   -58166.521 
    8270    9.0425018    -15597531            0    -15592705   -58166.258 
    8280    9.0260819    -15597528            0    -15592711   -58166.214 
    8290    9.0243406    -15597536            0    -15592720   -58166.715 
    8300    9.0383139    -15597556            0    -15592732   -58167.722 
    8310    9.0300842    -15597570            0    -15592751    -58168.52 
    8320    8.9949363    -15597569            0    -15592768   -58168.704 
    8330    8.9751839    -15597567            0    -15592777   -58168.723 
    8340     8.977582    -15597568            0    -15592777   -58168.768 
    8350    8.9901347    -15597568            0    -15592770   -58168.743 
    8360    9.0024057    -15597565            0    -15592760   -58168.556 
    8370    9.0117243    -15597557            0    -15592748   -58168.221 
    8380    9.0323665    -15597554            0    -15592733   -58167.988 
    8390    9.0539715    -15597549            0    -15592717   -58167.739 
    8400    9.0700536    -15597543            0    -15592702   -58167.454 
    8410    9.0728174    -15597537            0    -15592695   -58167.266 
    8420    9.0368923    -15597529            0    -15592706   -58167.116 
    8430    8.9836605    -15597526            0    -15592732   -58167.191 
    8440    8.9862247    -15597543            0    -15592747   -58167.893 
    8450    9.0175215    -15597568            0    -15592755   -58168.821 
    8460    9.0080209    -15597572            0    -15592765   -58169.109 
    8470    8.9726938    -15597564            0    -15592775   -58168.929 
    8480    8.9562738    -15597558            0    -15592778   -58168.766 
    8490    8.9769034    -15597559            0    -15592768   -58168.724 
    8500     9.033713    -15597562            0    -15592741   -58168.676 
    8510    9.0717726    -15597564            0    -15592722   -58168.526 
    8520    9.0654952    -15597563            0    -15592724   -58168.375 
    8530    9.0345618    -15597558            0    -15592737   -58168.159 
    8540    9.0023245    -15597552            0    -15592748   -58167.912 
    8550    8.9840163    -15597549            0    -15592754   -58167.769 
    8560    8.9818972    -15597549            0    -15592755   -58167.732 
    8570    8.9933294    -15597551            0    -15592751    -58167.74 
    8580     9.011888    -15597552            0    -15592743   -58167.726 
    8590    9.0362878    -15597555            0    -15592732    -58167.73 
    8600    9.0616593    -15597561            0    -15592724    -58167.79 
    8610    9.0452374    -15597557            0    -15592730   -58167.574 
    8620    8.9932983    -15597553            0    -15592754   -58167.401 
    8630    8.9916641    -15597573            0    -15592774   -58167.972 
    8640    9.0115876    -15597595            0    -15592786   -58168.637 
    8650    9.0022758    -15597601            0    -15592796   -58168.787 
    8660    8.9974383    -15597607            0    -15592805    -58168.93 
    8670    8.9962454    -15597614            0    -15592813   -58169.018 
    8680    8.9797095    -15597611            0    -15592819   -58168.775 
    8690    8.9804429    -15597614            0    -15592822   -58168.686 
    8700    8.9958311    -15597619            0    -15592819   -58168.671 
    8710    9.0124677    -15597618            0    -15592808   -58168.446 
    8720    9.0268231    -15597612            0    -15592794   -58168.081 
    8730    9.0276044    -15597603            0    -15592785     -58167.6 
    8740     9.007623    -15597588            0    -15592781    -58166.93 
    8750    8.9871386    -15597574            0    -15592778   -58166.299 
    8760    9.0030644    -15597574            0    -15592770   -58166.141 
    8770    9.0526606    -15597589            0    -15592758   -58166.437 
    8780    9.0644173    -15597592            0    -15592755   -58166.403 
    8790    9.0073885    -15597578            0    -15592771   -58165.872 
    8800    8.9503268    -15597570            0    -15592793   -58165.624 
    8810    8.9598635    -15597583            0    -15592801   -58166.036 
    8820    8.9986031    -15597600            0    -15592798   -58166.558 
    8830    9.0233697    -15597609            0    -15592793   -58166.745 
    8840    9.0267712    -15597611            0    -15592793   -58166.697 
    8850    9.0136749    -15597616            0    -15592806   -58166.806 
    8860    8.9674514    -15597623            0    -15592837   -58167.035 
    8870    8.9440339    -15597627            0    -15592854   -58167.114 
    8880    8.9490103    -15597628            0    -15592852   -58167.003 
    8890    8.9759453    -15597628            0    -15592837    -58166.82 
    8900    8.9995241    -15597622            0    -15592819   -58166.497 
    8910    9.0011454    -15597610            0    -15592806   -58166.093 
    8920     9.035646    -15597621            0    -15592799   -58166.528 
    8930    9.0742119    -15597645            0    -15592802   -58167.439 
    8940    9.0542752    -15597652            0    -15592820   -58167.864 
    8950    9.0122499    -15597649            0    -15592839   -58167.862 
    8960    8.9980481    -15597650            0    -15592848   -58167.922 
    8970    9.0100194    -15597661            0    -15592853   -58168.239 
    8980      9.01116    -15597668            0    -15592859   -58168.377 
    8990    8.9940221    -15597667            0    -15592867   -58168.258 
    9000    8.9737683    -15597665            0    -15592875   -58168.061 
    9010    8.9683707    -15597664            0    -15592878   -58167.958 
    9020    8.9944943    -15597671            0    -15592871   -58168.081 
    9030    9.0364077    -15597676            0    -15592854    -58168.11 
    9040    9.0553451    -15597671            0    -15592838   -58167.771 
    9050     9.037017    -15597657            0    -15592834   -58167.178 
    9060    9.0081144    -15597647            0    -15592840   -58166.785 
    9070    8.9851041    -15597648            0    -15592853   -58166.841 
    9080    8.9654616    -15597655            0    -15592870    -58167.18 
    9090    8.9543294    -15597662            0    -15592883   -58167.548 
    9100    8.9609958    -15597669            0    -15592887   -58167.866 
    9110    8.9979971    -15597681            0    -15592879   -58168.235 
    9120    9.0446617    -15597686            0    -15592859    -58168.33 
    9130    9.0616402    -15597679            0    -15592843   -58168.031 
    9140    9.0431018    -15597668            0    -15592841   -58167.636 
    9150    9.0035531    -15597657            0    -15592852    -58167.39 
    9160    8.9771382    -15597663            0    -15592872   -58167.712 
    9170    8.9774383    -15597682            0    -15592891   -58168.466 
    9180    8.9719292    -15597692            0    -15592903   -58168.834 
    9190    8.9496507    -15597683            0    -15592907   -58168.507 
    9200      8.95143    -15597672            0    -15592895   -58167.988 
    9210    9.0054536    -15597671            0    -15592865   -58167.638 
    9220    9.0434535    -15597675            0    -15592848   -58167.533 
    9230    9.0544145    -15597683            0    -15592851   -58167.621 
    9240    9.0210963    -15597679            0    -15592864   -58167.322 
    9250    8.9618776    -15597662            0    -15592879    -58166.71 
    9260     8.957081    -15597664            0    -15592884   -58166.731 
    9270    9.0050105    -15597683            0    -15592877    -58167.31 
    9280    9.0279749    -15597687            0    -15592869   -58167.421 
    9290    9.0124259    -15597675            0    -15592866   -58167.007 
    9300    9.0164847    -15597676            0    -15592864   -58166.972 
    9310    9.0200507    -15597681            0    -15592868   -58167.085 
    9320    8.9892917    -15597677            0    -15592879   -58166.967 
    9330    8.9711285    -15597682            0    -15592895   -58167.194 
    9340    8.9876571    -15597702            0    -15592905   -58167.838 
    9350    8.9964657    -15597716            0    -15592914   -58168.231 
    9360    8.9703397    -15597711            0    -15592924    -58167.99 
    9370     8.944041    -15597702            0    -15592929   -58167.527 
    9380    8.9620994    -15597701            0    -15592918   -58167.235 
    9390    9.0246819    -15597705            0    -15592889   -58167.059 
    9400    9.0505233    -15597703            0    -15592873   -58166.733 
    9410    9.0383366    -15597698            0    -15592874   -58166.325 
    9420    9.0139105    -15597694            0    -15592883   -58166.008 
    9430    8.9892127    -15597692            0    -15592895   -58165.799 
    9440    8.9867742    -15597699            0    -15592903   -58165.903 
    9450    8.9965749    -15597710            0    -15592908   -58166.157 
    9460    9.0060513    -15597721            0    -15592914   -58166.439 
    9470    8.9797937    -15597724            0    -15592931   -58166.454 
    9480    8.9350833    -15597724            0    -15592956   -58166.371 
    9490    8.9462221    -15597738            0    -15592964    -58166.66 
    9500     8.991772    -15597756            0    -15592958   -58167.046 
    9510     9.008026    -15597754            0    -15592946    -58166.75 
    9520    8.9913801    -15597730            0    -15592932   -58165.759 
    9530    8.9935637    -15597710            0    -15592910   -58164.809 
    9540    9.0175086    -15597701            0    -15592889   -58164.321 
    9550     9.029717    -15597701            0    -15592882   -58164.222 
    9560    9.0259628    -15597701            0    -15592884   -58164.205 
    9570    9.0179509    -15597704            0    -15592891   -58164.271 
    9580    9.0113847    -15597710            0    -15592901   -58164.483 
    9590    9.0056606    -15597719            0    -15592913   -58164.823 
    9600    9.0150827    -15597737            0    -15592926   -58165.483 
    9610    9.0199943    -15597755            0    -15592942   -58166.139 
    9620    9.0023214    -15597762            0    -15592957   -58166.351 
    9630    8.9725389    -15597753            0    -15592965   -58166.014 
    9640    8.9502126    -15597739            0    -15592962    -58165.43 
    9650     8.966353    -15597736            0    -15592951   -58165.192 
    9660    9.0214932    -15597752            0    -15592938   -58165.531 
    9670      9.05046    -15597762            0    -15592932   -58165.742 
    9680    9.0311162    -15597759            0    -15592939   -58165.566 
    9690    8.9907799    -15597752            0    -15592953    -58165.29 
    9700    8.9607494    -15597746            0    -15592964   -58165.072 
    9710    8.9613791    -15597746            0    -15592964   -58165.003 
    9720    8.9991681    -15597754            0    -15592951   -58165.148 
    9730    9.0631429    -15597764            0    -15592928   -58165.335 
    9740    9.0952884    -15597760            0    -15592906   -58165.042 
    9750    9.0577749    -15597736            0    -15592902   -58164.234 
    9760     8.997739    -15597725            0    -15592923   -58163.983 
    9770    8.9640328    -15597739            0    -15592956   -58164.629 
    9780     8.963689    -15597750            0    -15592967    -58165.07 
    9790    8.9726951    -15597754            0    -15592965   -58165.167 
    9800     9.012773    -15597766            0    -15592957    -58165.47 
    9810    9.0471769    -15597778            0    -15592950   -58165.687 
    9820    9.0348113    -15597776            0    -15592955   -58165.454 
    9830    8.9871546    -15597769            0    -15592973   -58165.089 
    9840     8.953905    -15597771            0    -15592992    -58165.08 
    9850    8.9691369    -15597787            0    -15593000   -58165.545 
    9860    9.0095871    -15597808            0    -15593000   -58166.176 
    9870    9.0198802    -15597814            0    -15593000   -58166.321 
    9880    8.9720676    -15597799            0    -15593011   -58165.829 
    9890    8.9337756    -15597793            0    -15593025   -58165.691 
    9900    8.9687209    -15597813            0    -15593027   -58166.376 
    9910    9.0278663    -15597837            0    -15593019   -58167.108 
    9920    9.0328612    -15597836            0    -15593015   -58166.976 
    9930    8.9967024    -15597820            0    -15593019    -58166.35 
    9940    8.9773204    -15597815            0    -15593024   -58166.071 
    9950    8.9743688    -15597813            0    -15593024   -58165.998 
    9960      8.98073    -15597807            0    -15593014    -58165.82 
    9970    9.0151366    -15597805            0    -15592994   -58165.704 
    9980    9.0341207    -15597797            0    -15592976   -58165.366 
    9990    9.0137225    -15597780            0    -15592969   -58164.667 
   10000    8.9943133    -15597766            0    -15592966   -58164.115 
   10010    9.0103422    -15597770            0    -15592962   -58164.174 
[...]
   11500    32.846594    -15603741    -15598960 
   11600    33.037369    -15603728    -15598918 
   11700    32.939452    -15603785    -15598990 
   11800    32.831631    -15603748    -15598968 
   11900    32.919296    -15603788    -15598995 
   12000     33.07162    -15603807    -15598992 
   12100    32.988605    -15603821    -15599018 
   12200    33.072778    -15603790    -15598975 
   12300    32.999323    -15603794    -15598990 
   12400    33.024024    -15603793    -15598986 
   12500    33.091732    -15603804    -15598986 
   12600    32.982166    -15603820    -15599019 
   12700    33.045442    -15603806    -15598995 
   12800    32.948483    -15603816    -15599020 
   12900    32.869047    -15603829    -15599044 
   13000    32.958408    -15603823    -15599025 
   13100    33.085394    -15603844    -15599027 
   13200    33.084152    -15603796    -15598979 
   13300     32.90835    -15603868    -15599077 
   13400    32.883127    -15603844    -15599056 
   13500    32.995943    -15603829    -15599025 
   13600    33.205188    -15603895    -15599061 
   13700    32.813586    -15603861    -15599084 
   13800    32.892804    -15603875    -15599086 
   13900    32.943623    -15603870    -15599074 
   14000    32.750797    -15603878    -15599110 
   14100    33.045146    -15603886    -15599075 
   14200    33.106668    -15603914    -15599095 
   14300    32.923323    -15603900    -15599107 
   14400    33.011321    -15603922    -15599116 
   14500    33.193839    -15603896    -15599064 
   14600    32.898824    -15603888    -15599099 
   14700    32.987862    -15603919    -15599116 
   14800    33.038753    -15603903    -15599093 
   14900    32.945235    -15603902    -15599106 
   15000     33.00416    -15603970    -15599166 
   15100    32.974467    -15603926    -15599126 
   15200    32.792071    -15603933    -15599159 
   15300    32.928895    -15603935    -15599142 
   15400    33.106988    -15603919    -15599099 
   15500    32.775227    -15603977    -15599206 
   15600    33.113223    -15603954    -15599133 
   15700    32.777331    -15603961    -15599190 
   15800    33.200488    -15603935    -15599101 
   15900    33.062538    -15603990    -15599177 
   16000    33.093313    -15603963    -15599146 
   16100    32.800874    -15603956    -15599181 
   16200    32.864486    -15603938    -15599154 
   16300     32.74409    -15603982    -15599215 
   16400    32.830696    -15603966    -15599187 
   16500    32.928162    -15603988    -15599194 
   16600    32.959031    -15603998    -15599200 
   16700    33.130897    -15603969    -15599145 
   16800     33.10736    -15603991    -15599172 
   16900    33.077864    -15603991    -15599175 
   17000    33.036576    -15604017    -15599208 
   17100     32.92415    -15604008    -15599214 
   17200    32.726211    -15603998    -15599234 
   17300    32.869835    -15604006    -15599221 
   17400    32.866893    -15604026    -15599241 
   17500     32.82682    -15603969    -15599190 
   17600     32.89211    -15604015    -15599227 
   17700    32.895894    -15604025    -15599236 
   17800    33.020482    -15604011    -15599204 
   17900    32.935275    -15604024    -15599230 
   18000    33.164818    -15604026    -15599198 
   18100    32.864093    -15603982    -15599198 
   18200    33.034108    -15604015    -15599205 
   18300    32.974869    -15604013    -15599212 
   18400    32.918136    -15604035    -15599243 
   18500     33.14942    -15604005    -15599179 
   18600    33.130338    -15603999    -15599175 
   18700    33.111281    -15604008    -15599187 
   18800    32.867602    -15604019    -15599234 
   18900    33.022554    -15604038    -15599230 
   19000    32.891119    -15603992    -15599203 
   19100     32.97679    -15604010    -15599210 
   19200    33.016198    -15603990    -15599183 
   19300    33.071266    -15604049    -15599235 
   19400    33.162128    -15604005    -15599177 
   19500    32.881154    -15604076    -15599289 
   19600    33.024929    -15603993    -15599185 
   19700    33.051754    -15604050    -15599238 
   19800    32.855879    -15604041    -15599258 
   19900    33.054818    -15604032    -15599219 
   20000    32.977093    -15604006    -15599205 
   20100    32.866986    -15604064    -15599279 
   20200    33.043053    -15604055    -15599244 
   20300    32.992523    -15604021    -15599218 
   20400    33.093751    -15604064    -15599247 
   20500    33.062296    -15604049    -15599236 
   20600    33.184442    -15604080    -15599249 
   20700    33.033928    -15604060    -15599251 
   20800    33.053529    -15604039    -15599227 
   20900    33.146662    -15604044    -15599218 
   21000    33.208504    -15604046    -15599211 
   21100    32.873312    -15604061    -15599276 
   21200     33.05776    -15604028    -15599215 
   21300    32.998779    -15604057    -15599253 
   21400    33.182255    -15604088    -15599258 
   21500    32.935289    -15604048    -15599253 
   21600    33.037983    -15604050    -15599240 
   21700    33.195741    -15604027    -15599195 
   21800    32.778528    -15604077    -15599305 
   21900    33.105651    -15604033    -15599214 
   22000    32.763971    -15604066    -15599296 
   22100    33.125323    -15604040    -15599218 
   22200    33.041083    -15604045    -15599235 
   22300    33.189259    -15604059    -15599228 
   22400     33.06535    -15604048    -15599234 
   22500    32.900723    -15604049    -15599259 
   22600    32.904195    -15604020    -15599230 
   22700    32.776901    -15604034    -15599263 
   22800    33.108566    -15604055    -15599235 
   22900    33.086122    -15604052    -15599236 
   23000    33.062464    -15604021    -15599207 
   23100    32.857437    -15604019    -15599235 
   23200    33.040788    -15604053    -15599243 
   23300    32.995447    -15604050    -15599246 
   23400    33.090494    -15604023    -15599205 
   23500    33.274243    -15604067    -15599223 
   23600    33.099401    -15604036    -15599217 
   23700    32.821763    -15604070    -15599292 
   23800    32.940486    -15604042    -15599247 
   23900    33.137132    -15604079    -15599255 
   24000    32.805763    -15604042    -15599266 
   24100    32.856205    -15604069    -15599286 
   24200    32.944226    -15604059    -15599263 
   24300    33.111991    -15604074    -15599254 
   24400    33.036127    -15604069    -15599260 
   24500    33.081545    -15604080    -15599264 
   24600    32.790842    -15604042    -15599269 
   24700    33.046125    -15604084    -15599273 
   24800    33.217649    -15604053    -15599217 
   24900     32.91812    -15604056    -15599264 
   25000    32.829171    -15604035    -15599256 
   25100    32.808763    -15604057    -15599281 
   25200    33.061003    -15604079    -15599266 
   25300    33.002683    -15604076    -15599271 
   25400    32.961457    -15604077    -15599278 
   25500    32.935596    -15604050    -15599255 
   25600    33.079549    -15604066    -15599250 
   25700    33.049857    -15604052    -15599240 
   25800    33.166705    -15604090    -15599261 
   25900    32.888328    -15604082    -15599294 
   26000    33.076635    -15604041    -15599226 
   26100    32.808074    -15604054    -15599278 
   26200    32.915078    -15604050    -15599258 
   26300    33.180569    -15604063    -15599233 
   26400    33.121562    -15604017    -15599195 
   26500    32.975505    -15604073    -15599273 
   26600     32.83116    -15604044    -15599264 
   26700    32.877286    -15604047    -15599260 
   26800     32.85912    -15604081    -15599297 
   26900    33.035719    -15604042    -15599233 
   27000     32.75402    -15604075    -15599306 
   27100    32.785842    -15604058    -15599285 
   27200    32.764933    -15604055    -15599285 
   27300    33.122648    -15604067    -15599245 
   27400    33.038752    -15604055    -15599246 
   27500    33.015496    -15604074    -15599268 
   27600    33.039327    -15604066    -15599256 
   27700    32.965449    -15604092    -15599293 
   27800    32.867877    -15604074    -15599289 
   27900    32.827791    -15604076    -15599296 
   28000    33.157342    -15604086    -15599259 
   28100    33.047899    -15604055    -15599244 
   28200    32.927778    -15604097    -15599304 
   28300    32.962945    -15604059    -15599260 
   28400    33.057614    -15604032    -15599219 
   28500    33.055067    -15604048    -15599236 
   28600    32.931444    -15604069    -15599275 
   28700     33.06781    -15604086    -15599272 
   28800    32.928932    -15604109    -15599315 
   28900     32.92455    -15604099    -15599306 
   29000    32.894741    -15604092    -15599303 
   29100    33.231064    -15604077    -15599239 
   29200    32.955142    -15604089    -15599291 
   29300    32.822108    -15604080    -15599302 
   29400     33.11761    -15604071    -15599249 
   29500    32.943973    -15604047    -15599251 
   29600    32.907306    -15604064    -15599273 
   29700     33.19884    -15604073    -15599240 
   29800    32.814514    -15604066    -15599288 
   29900     33.18337    -15604068    -15599237 
   30000    32.892452    -15604091    -15599302 
   30100    33.040064    -15604068    -15599258 
   30200    32.982075    -15604106    -15599304 
   30300    32.942264    -15604058    -15599262 
   30400    32.910793    -15604076    -15599284 
   30500    32.885663    -15604112    -15599325 
   30600     33.13239    -15604077    -15599254 
   30700    33.063754    -15604060    -15599247 
   30800    32.956519    -15604068    -15599270 
   30900    32.820927    -15604047    -15599269 
   31000    32.945895    -15604079    -15599282 
   31100    32.777841    -15604059    -15599287 
   31200    32.888936    -15604060    -15599272 
   31300    33.024742    -15604082    -15599274 
   31400    33.063006    -15604092    -15599279 
   31500     33.17047    -15604069    -15599240 
   31600     33.17255    -15604060    -15599230 
   31700    32.999273    -15604110    -15599305 
   31800    33.177924    -15604074    -15599244 
   31900    32.896646    -15604085    -15599296 
   32000    33.059013    -15604084    -15599271 
   32100    32.998923    -15604110    -15599306 
   32200    32.974016    -15604129    -15599329 
   32300    32.934618    -15604090    -15599296 
   32400    32.745462    -15604115    -15599348 
   32500    33.095887    -15604086    -15599268 
   32600    32.887309    -15604089    -15599301 
   32700    33.025962    -15604025    -15599217 
   32800    32.841088    -15604093    -15599312 
   32900    33.211562    -15604074    -15599239 
   33000    32.926124    -15604106    -15599313 
   33100     33.01628    -15604115    -15599309 
   33200    33.107091    -15604082    -15599262 
   33300    33.085368    -15604119    -15599302 
   33400    33.015434    -15604071    -15599265 
   33500    33.007402    -15604119    -15599313 
   33600    33.086746    -15604056    -15599240 
   33700    32.697002    -15604092    -15599332 
   33800    33.184271    -15604072    -15599241 
   33900    32.909268    -15604069    -15599278 
   34000     33.16093    -15604092    -15599264 
   34100    32.966525    -15604059    -15599260 
   34200    32.905243    -15604077    -15599287 
   34300    33.224184    -15604080    -15599243 
   34400    33.107007    -15604126    -15599307 
   34500    33.226755    -15604090    -15599253 
   34600    32.924922    -15604068    -15599275 
   34700    32.843656    -15604072    -15599291 
   34800    33.037263    -15604092    -15599283 
   34900    33.055967    -15604078    -15599265 
   35000    33.059215    -15604070    -15599257 
   35100    32.979985    -15604100    -15599298 
   35200    33.139578    -15604079    -15599255 
   35300    33.171758    -15604114    -15599285 
   35400    33.067278    -15604071    -15599257 
   35500    33.091369    -15604104    -15599286 
   35600    33.247711    -15604103    -15599262 
   35700    33.170354    -15604116    -15599287 
   35800    32.958845    -15604107    -15599309 
   35900    32.902135    -15604076    -15599286 
   36000     33.03018    -15604098    -15599289 
   36100    32.949832    -15604134    -15599337 
   36200    33.082907    -15604100    -15599284 
   36300    33.162334    -15604079    -15599252 
   36400    32.820863    -15604116    -15599338 
   36500    33.244213    -15604062    -15599222 
   36600      32.7797    -15604084    -15599312 
   36700    32.912627    -15604078    -15599286 
   36800    33.233075    -15604091    -15599252 
   36900    32.830166    -15604084    -15599304 
   37000    33.030271    -15604074    -15599265 
   37100    33.067983    -15604099    -15599285 
   37200    32.969081    -15604095    -15599295 
   37300    32.999729    -15604059    -15599255 
   37400    32.888499    -15604106    -15599318 
   37500    32.969235    -15604087    -15599287 
   37600    33.020691    -15604086    -15599279 
   37700    33.060929    -15604084    -15599271 
   37800    33.096193    -15604104    -15599286 
   37900    33.087188    -15604067    -15599250 
   38000    32.992788    -15604080    -15599277 
   38100    33.081062    -15604083    -15599267 
   38200    32.968834    -15604079    -15599279 
   38300    33.019593    -15604102    -15599295 
   38400    33.276057    -15604059    -15599214 
   38500    33.049063    -15604113    -15599302 
   38600    32.984149    -15604129    -15599328 
   38700    32.924067    -15604075    -15599282 
   38800    32.908983    -15604122    -15599331 
   38900    33.270158    -15604084    -15599241 
   39000    32.799478    -15604110    -15599335 
   39100    33.208419    -15604102    -15599268 
   39200    33.108755    -15604067    -15599247 
   39300    32.965074    -15604119    -15599320 
   39400    33.015782    -15604103    -15599296 
   39500    33.083123    -15604118    -15599302 
   39600    32.908571    -15604104    -15599314 
   39700    33.115853    -15604106    -15599285 
   39800     33.05044    -15604074    -15599262 
   39900    33.042576    -15604128    -15599317 
   40000    33.089927    -15604097    -15599279 
   40100    33.061545    -15604085    -15599272 
   40200    32.743336    -15604132    -15599366 
   40300    33.219892    -15604097    -15599261 
   40400    33.167667    -15604105    -15599276 
   40500    32.831719    -15604098    -15599318 
   40600    32.965105    -15604091    -15599292 
   40700    33.001902    -15604101    -15599297 
   40800    32.940865    -15604103    -15599307 
   40900    32.820855    -15604134    -15599356 
   41000    32.693569    -15604083    -15599324 
   41100    32.959958    -15604101    -15599302 
   41200    32.784251    -15604126    -15599353 
   41300    32.968422    -15604105    -15599306 
   41400    32.966779    -15604111    -15599312 
   41500    33.069816    -15604087    -15599273 
   41600    32.999511    -15604091    -15599287 
   41700    32.995243    -15604077    -15599274 
   41800    33.102379    -15604100    -15599281 
   41900    33.011993    -15604113    -15599307 
   42000    32.950407    -15604124    -15599327 
   42100     33.00521    -15604092    -15599287 
   42200    33.053641    -15604120    -15599308 
   42300    32.833081    -15604100    -15599320 
   42400    33.128341    -15604129    -15599306 
   42500    33.086542    -15604089    -15599272 
   42600    33.220918    -15604135    -15599299 
   42700    33.033352    -15604095    -15599286 
   42800    32.851916    -15604087    -15599304 
   42900     32.96047    -15604069    -15599270 
   43000    33.194782    -15604075    -15599243 
   43100    33.258761    -15604121    -15599279 
   43200    33.061806    -15604089    -15599275 
   43300    33.025837    -15604124    -15599316 
   43400    33.149366    -15604106    -15599280 
   43500    33.191013    -15604093    -15599261 
   43600    32.995414    -15604089    -15599286 
   43700    32.903631    -15604113    -15599323 
   43800    32.840092    -15604100    -15599320 
   43900    33.185327    -15604095    -15599264 
   44000    33.133874    -15604121    -15599297 
   44100    33.193799    -15604117    -15599285 
   44200    33.122386    -15604068    -15599246 
   44300    33.103949    -15604113    -15599294 
   44400    32.919879    -15604114    -15599322 
   44500    33.227421    -15604087    -15599250 
   44600    33.240091    -15604096    -15599257 
   44700     32.82075    -15604097    -15599319 
   44800    32.756036    -15604139    -15599370 
   44900    32.889233    -15604120    -15599332 
   45000    32.827425    -15604141    -15599362 
   45100    32.972672    -15604134    -15599333 
   45200    33.046044    -15604132    -15599321 
   45300    32.989947    -15604096    -15599294 
   45400     32.91205    -15604085    -15599293 
   45500    33.289437    -15604103    -15599257 
   45600    32.970744    -15604134    -15599335 
   45700    32.982377    -15604089    -15599287 
   45800    33.042039    -15604123    -15599313 
   45900    33.130421    -15604126    -15599302 
   46000    32.872137    -15604130    -15599345 
   46100    32.972395    -15604105    -15599305 
   46200    33.065534    -15604149    -15599335 
   46300    33.030412    -15604114    -15599305 
   46400    32.988704    -15604142    -15599340 
   46500    33.131189    -15604134    -15599310 
   46600    32.878184    -15604134    -15599347 
   46700    33.036934    -15604146    -15599337 
   46800    33.220142    -15604109    -15599273 
   46900     32.98424    -15604143    -15599341 
   47000    33.136481    -15604110    -15599286 
   47100    32.725962    -15604136    -15599372 
   47200    32.899901    -15604090    -15599301 
   47300    33.000956    -15604113    -15599309 
   47400    33.107639    -15604092    -15599272 
   47500    33.195721    -15604121    -15599289 
   47600    32.972825    -15604075    -15599275 
   47700    32.988429    -15604098    -15599296 
   47800    33.006593    -15604114    -15599309 
   47900    33.305961    -15604124    -15599275 
   48000    33.202286    -15604120    -15599287 
   48100    33.068235    -15604106    -15599292 
   48200     33.06193    -15604121    -15599308 
   48300    33.168808    -15604103    -15599275 
   48400    32.889465    -15604105    -15599317 
   48500    33.282861    -15604112    -15599267 
   48600    33.228997    -15604118    -15599280 
   48700    32.851904    -15604096    -15599313 
   48800    33.010354    -15604129    -15599324 
   48900    32.969528    -15604133    -15599333 
   49000    33.170485    -15604091    -15599262 
   49100    32.804471    -15604151    -15599375 
   49200    33.067531    -15604125    -15599311 
   49300    33.262655    -15604108    -15599265 
   49400    33.082392    -15604106    -15599290 
   49500    32.958805    -15604101    -15599303 
   49600    32.763053    -15604101    -15599332 
   49700       33.032    -15604149    -15599340 
   49800    33.061753    -15604134    -15599321 
   49900     32.89602    -15604110    -15599321 
   50000    32.911658    -15604149    -15599358 
Loop time of 32040 on 32 procs for 50000 steps with 179040 atoms

Performance: 0.674 ns/day, 35.600 hours/ns, 1.561 timesteps/s
71.8% CPU use with 4 MPI tasks x 8 OpenMP threads

MPI task timing breakdown:
Section |  min time  |  avg time  |  max time  |%varavg| %total
---------------------------------------------------------------
Pair    | 1181.1     | 9452       | 28763      |11674.8 | 29.50
Neigh   | 173.93     | 541.6      | 1431       |2227.3 |  1.69
Comm    | 544.43     | 14920      | 29054      |9746.7 | 46.57
Output  | 86.726     | 151.56     | 173.3      | 304.0 |  0.47
Modify  | 169.02     | 6327.9     | 23574      |12525.7 | 19.75
Other   |            | 646.7      |            |       |  2.02

Nlocal:    44760 ave 61989 max 32364 min
Histogram: 2 0 0 0 0 0 1 0 0 1
Nghost:    85892.5 ave 98724 max 75828 min
Histogram: 2 0 0 0 0 0 0 1 0 1
Neighs:    9.63685e+06 ave 1.94722e+07 max 2.80159e+06 min
Histogram: 2 0 0 0 0 0 1 0 0 1

Total # of neighbors = 38547386
Ave neighs/atom = 215.3
Neighbor list builds = 859
Dangerous builds = 0


Total wall time: 17:46:53
