LAMMPS data file for tank.MD

32860 atoms
19964 bonds
0 angles
0 dihedrals
0 impropers

2 atom types
1 bond types
0 angle types
0 dihedral types
0 improper types

0.0 30.2 xlo xhi
0.0 34.0 ylo yhi
0.0 47.5 zlo zhi

Atoms

1 1 1 3.368571 0.532550 3.368571
2 1 1 4.433671 0.532550 3.368571
3 1 1 5.498771 0.532550 3.368571
4 1 1 6.563871 0.532550 3.368571
5 1 1 7.628971 0.532550 3.368571
6 1 1 8.694071 0.532550 3.368571
7 1 1 9.759171 0.532550 3.368571
8 1 1 10.824271 0.532550 3.368571
9 2 1 11.889371 0.532550 3.368571
10 2 1 12.954471 0.532550 3.368571
11 2 1 14.019571 0.532550 3.368571
12 2 1 15.084671 0.532550 3.368571
13 2 1 16.149771 0.532550 3.368571
14 2 1 17.214871 0.532550 3.368571
15 2 1 18.279971 0.532550 3.368571
16 2 1 19.345071 0.532550 3.368571
17 3 1 20.410171 0.532550 3.368571
18 3 1 21.475271 0.532550 3.368571
19 3 1 22.540371 0.532550 3.368571
20 3 1 23.605471 0.532550 3.368571
21 3 1 24.670571 0.532550 3.368571
22 3 1 25.735671 0.532550 3.368571
23 3 1 26.800771 0.532550 3.368571
24 3 1 26.800771 1.597650 3.368571
25 4 1 25.735671 1.597650 3.368571
26 4 1 24.670571 1.597650 3.368571
27 4 1 23.605471 1.597650 3.368571
28 4 1 22.540371 1.597650 3.368571
29 4 1 21.475271 1.597650 3.368571
30 4 1 20.410171 1.597650 3.368571
31 4 1 19.345071 1.597650 3.368571
32 4 1 18.279971 1.597650 3.368571
33 5 1 17.214871 1.597650 3.368571
34 5 1 16.149771 1.597650 3.368571
35 5 1 15.084671 1.597650 3.368571
36 5 1 14.019571 1.597650 3.368571
37 5 1 12.954471 1.597650 3.368571
38 5 1 11.889371 1.597650 3.368571
39 5 1 10.824271 1.597650 3.368571
40 5 1 9.759171 1.597650 3.368571
41 6 1 8.694071 1.597650 3.368571
42 6 1 7.628971 1.597650 3.368571
43 6 1 6.563871 1.597650 3.368571
44 6 1 5.498771 1.597650 3.368571
45 6 1 4.433671 1.597650 3.368571
46 6 1 3.368571 1.597650 3.368571
47 6 1 3.368571 2.662750 3.368571
48 6 1 4.433671 2.662750 3.368571
49 7 1 5.498771 2.662750 3.368571
50 7 1 6.563871 2.662750 3.368571
51 7 1 7.628971 2.662750 3.368571
52 7 1 8.694071 2.662750 3.368571
53 7 1 9.759171 2.662750 3.368571
54 7 1 10.824271 2.662750 3.368571
55 7 1 11.889371 2.662750 3.368571
56 7 1 12.954471 2.662750 3.368571
57 8 1 14.019571 2.662750 3.368571
58 8 1 15.084671 2.662750 3.368571
59 8 1 16.149771 2.662750 3.368571
60 8 1 17.214871 2.662750 3.368571
61 8 1 18.279971 2.662750 3.368571
62 8 1 19.345071 2.662750 3.368571
63 8 1 20.410171 2.662750 3.368571
64 8 1 21.475271 2.662750 3.368571
65 9 1 22.540371 2.662750 3.368571
66 9 1 23.605471 2.662750 3.368571
67 9 1 24.670571 2.662750 3.368571
68 9 1 25.735671 2.662750 3.368571
69 9 1 26.800771 2.662750 3.368571
70 9 1 26.800771 3.727850 3.368571
71 9 1 25.735671 3.727850 3.368571
72 9 1 24.670571 3.727850 3.368571
73 10 1 23.605471 3.727850 3.368571
74 10 1 22.540371 3.727850 3.368571
75 10 1 21.475271 3.727850 3.368571
76 10 1 20.410171 3.727850 3.368571
77 10 1 19.345071 3.727850 3.368571
78 10 1 18.279971 3.727850 3.368571
79 10 1 17.214871 3.727850 3.368571
80 10 1 16.149771 3.727850 3.368571
81 11 1 15.084671 3.727850 3.368571
82 11 1 14.019571 3.727850 3.368571
83 11 1 12.954471 3.727850 3.368571
84 11 1 11.889371 3.727850 3.368571
85 11 1 10.824271 3.727850 3.368571
86 11 1 9.759171 3.727850 3.368571
87 11 1 8.694071 3.727850 3.368571
88 11 1 7.628971 3.727850 3.368571
89 12 1 6.563871 3.727850 3.368571
90 12 1 5.498771 3.727850 3.368571
91 12 1 4.433671 3.727850 3.368571
92 12 1 3.368571 3.727850 3.368571
93 12 1 3.368571 4.792950 3.368571
94 12 1 4.433671 4.792950 3.368571
95 12 1 5.498771 4.792950 3.368571
96 12 1 6.563871 4.792950 3.368571
97 13 1 7.628971 4.792950 3.368571
98 13 1 8.694071 4.792950 3.368571
99 13 1 9.759171 4.792950 3.368571
100 13 1 10.824271 4.792950 3.368571
101 13 1 11.889371 4.792950 3.368571
102 13 1 12.954471 4.792950 3.368571
103 13 1 14.019571 4.792950 3.368571
104 13 1 15.084671 4.792950 3.368571
105 14 1 16.149771 4.792950 3.368571
106 14 1 17.214871 4.792950 3.368571
107 14 1 18.279971 4.792950 3.368571
108 14 1 19.345071 4.792950 3.368571
109 14 1 20.410171 4.792950 3.368571
110 14 1 21.475271 4.792950 3.368571
111 14 1 22.540371 4.792950 3.368571
112 14 1 23.605471 4.792950 3.368571
113 15 1 24.670571 4.792950 3.368571
114 15 1 25.735671 4.792950 3.368571
115 15 1 26.800771 4.792950 3.368571
116 15 1 26.800771 5.858050 3.368571
117 15 1 25.735671 5.858050 3.368571
118 15 1 24.670571 5.858050 3.368571
119 15 1 23.605471 5.858050 3.368571
120 15 1 22.540371 5.858050 3.368571
121 16 1 21.475271 5.858050 3.368571
122 16 1 20.410171 5.858050 3.368571
123 16 1 19.345071 5.858050 3.368571
124 16 1 18.279971 5.858050 3.368571
125 16 1 17.214871 5.858050 3.368571
126 16 1 16.149771 5.858050 3.368571
127 16 1 15.084671 5.858050 3.368571
128 16 1 14.019571 5.858050 3.368571
129 17 1 12.954471 5.858050 3.368571
130 17 1 11.889371 5.858050 3.368571
131 17 1 10.824271 5.858050 3.368571
132 17 1 9.759171 5.858050 3.368571
133 17 1 8.694071 5.858050 3.368571
134 17 1 7.628971 5.858050 3.368571
135 17 1 6.563871 5.858050 3.368571
136 17 1 5.498771 5.858050 3.368571
137 18 1 4.433671 5.858050 3.368571
138 18 1 3.368571 5.858050 3.368571
139 18 1 3.368571 6.923150 3.368571
140 18 1 4.433671 6.923150 3.368571
141 18 1 5.498771 6.923150 3.368571
142 18 1 6.563871 6.923150 3.368571
143 18 1 7.628971 6.923150 3.368571
144 18 1 8.694071 6.923150 3.368571
145 19 1 9.759171 6.923150 3.368571
146 19 1 10.824271 6.923150 3.368571
147 19 1 11.889371 6.923150 3.368571
148 19 1 12.954471 6.923150 3.368571
149 19 1 14.019571 6.923150 3.368571
150 19 1 15.084671 6.923150 3.368571
151 19 1 16.149771 6.923150 3.368571
152 19 1 17.214871 6.923150 3.368571
153 20 1 18.279971 6.923150 3.368571
154 20 1 19.345071 6.923150 3.368571
155 20 1 20.410171 6.923150 3.368571
156 20 1 21.475271 6.923150 3.368571
157 20 1 22.540371 6.923150 3.368571
158 20 1 23.605471 6.923150 3.368571
159 20 1 24.670571 6.923150 3.368571
160 20 1 25.735671 6.923150 3.368571
161 21 1 26.800771 6.923150 3.368571
162 21 1 26.800771 7.988250 3.368571
163 21 1 25.735671 7.988250 3.368571
164 21 1 24.670571 7.988250 3.368571
165 21 1 23.605471 7.988250 3.368571
166 21 1 22.540371 7.988250 3.368571
167 21 1 21.475271 7.988250 3.368571
168 21 1 20.410171 7.988250 3.368571
169 22 1 19.345071 7.988250 3.368571
170 22 1 18.279971 7.988250 3.368571
171 22 1 17.214871 7.988250 3.368571
172 22 1 16.149771 7.988250 3.368571
173 22 1 15.084671 7.988250 3.368571
174 22 1 14.019571 7.988250 3.368571
175 22 1 12.954471 7.988250 3.368571
176 22 1 11.889371 7.988250 3.368571
177 23 1 10.824271 7.988250 3.368571
178 23 1 9.759171 7.988250 3.368571
179 23 1 8.694071 7.988250 3.368571
180 23 1 7.628971 7.988250 3.368571
181 23 1 6.563871 7.988250 3.368571
182 23 1 5.498771 7.988250 3.368571
183 23 1 4.433671 7.988250 3.368571
184 23 1 3.368571 7.988250 3.368571
185 24 1 3.368571 9.053350 3.368571
186 24 1 4.433671 9.053350 3.368571
187 24 1 5.498771 9.053350 3.368571
188 24 1 6.563871 9.053350 3.368571
189 24 1 7.628971 9.053350 3.368571
190 24 1 8.694071 9.053350 3.368571
191 24 1 9.759171 9.053350 3.368571
192 24 1 10.824271 9.053350 3.368571
193 25 1 11.889371 9.053350 3.368571
194 25 1 12.954471 9.053350 3.368571
195 25 1 14.019571 9.053350 3.368571
196 25 1 15.084671 9.053350 3.368571
197 25 1 16.149771 9.053350 3.368571
198 25 1 17.214871 9.053350 3.368571
199 25 1 18.279971 9.053350 3.368571
200 25 1 19.345071 9.053350 3.368571
201 26 1 20.410171 9.053350 3.368571
202 26 1 21.475271 9.053350 3.368571
203 26 1 22.540371 9.053350 3.368571
204 26 1 23.605471 9.053350 3.368571
205 26 1 24.670571 9.053350 3.368571
206 26 1 25.735671 9.053350 3.368571
207 26 1 26.800771 9.053350 3.368571
208 26 1 26.800771 10.118450 3.368571
209 27 1 25.735671 10.118450 3.368571
210 27 1 24.670571 10.118450 3.368571
211 27 1 23.605471 10.118450 3.368571
212 27 1 22.540371 10.118450 3.368571
213 27 1 21.475271 10.118450 3.368571
214 27 1 20.410171 10.118450 3.368571
215 27 1 19.345071 10.118450 3.368571
216 27 1 18.279971 10.118450 3.368571
217 28 1 17.214871 10.118450 3.368571
218 28 1 16.149771 10.118450 3.368571
219 28 1 15.084671 10.118450 3.368571
220 28 1 14.019571 10.118450 3.368571
221 28 1 12.954471 10.118450 3.368571
222 28 1 11.889371 10.118450 3.368571
223 28 1 10.824271 10.118450 3.368571
224 28 1 9.759171 10.118450 3.368571
225 29 1 8.694071 10.118450 3.368571
226 29 1 7.628971 10.118450 3.368571
227 29 1 6.563871 10.118450 3.368571
228 29 1 5.498771 10.118450 3.368571
229 29 1 4.433671 10.118450 3.368571
230 29 1 3.368571 10.118450 3.368571
231 29 1 3.368571 11.183550 3.368571
232 29 1 4.433671 11.183550 3.368571
233 30 1 5.498771 11.183550 3.368571
234 30 1 6.563871 11.183550 3.368571
235 30 1 7.628971 11.183550 3.368571
236 30 1 8.694071 11.183550 3.368571
237 30 1 9.759171 11.183550 3.368571
238 30 1 10.824271 11.183550 3.368571
239 30 1 11.889371 11.183550 3.368571
240 30 1 12.954471 11.183550 3.368571
241 31 1 14.019571 11.183550 3.368571
242 31 1 15.084671 11.183550 3.368571
243 31 1 16.149771 11.183550 3.368571
244 31 1 17.214871 11.183550 3.368571
245 31 1 18.279971 11.183550 3.368571
246 31 1 19.345071 11.183550 3.368571
247 31 1 20.410171 11.183550 3.368571
248 31 1 21.475271 11.183550 3.368571
249 32 1 22.540371 11.183550 3.368571
250 32 1 23.605471 11.183550 3.368571
251 32 1 24.670571 11.183550 3.368571
252 32 1 25.735671 11.183550 3.368571
253 32 1 26.800771 11.183550 3.368571
254 32 1 26.800771 12.248650 3.368571
255 32 1 25.735671 12.248650 3.368571
256 32 1 24.670571 12.248650 3.368571
257 33 1 23.605471 12.248650 3.368571
258 33 1 22.540371 12.248650 3.368571
259 33 1 21.475271 12.248650 3.368571
260 33 1 20.410171 12.248650 3.368571
261 33 1 19.345071 12.248650 3.368571
262 33 1 18.279971 12.248650 3.368571
263 33 1 17.214871 12.248650 3.368571
264 33 1 16.149771 12.248650 3.368571
265 34 1 15.084671 12.248650 3.368571
266 34 1 14.019571 12.248650 3.368571
267 34 1 12.954471 12.248650 3.368571
268 34 1 11.889371 12.248650 3.368571
269 34 1 10.824271 12.248650 3.368571
270 34 1 9.759171 12.248650 3.368571
271 34 1 8.694071 12.248650 3.368571
272 34 1 7.628971 12.248650 3.368571
273 35 1 6.563871 12.248650 3.368571
274 35 1 5.498771 12.248650 3.368571
275 35 1 4.433671 12.248650 3.368571
276 35 1 3.368571 12.248650 3.368571
277 35 1 3.368571 13.313750 3.368571
278 35 1 4.433671 13.313750 3.368571
279 35 1 5.498771 13.313750 3.368571
280 35 1 6.563871 13.313750 3.368571
281 36 1 7.628971 13.313750 3.368571
282 36 1 8.694071 13.313750 3.368571
283 36 1 9.759171 13.313750 3.368571
284 36 1 10.824271 13.313750 3.368571
285 36 1 11.889371 13.313750 3.368571
286 36 1 12.954471 13.313750 3.368571
287 36 1 14.019571 13.313750 3.368571
288 36 1 15.084671 13.313750 3.368571
289 37 1 16.149771 13.313750 3.368571
290 37 1 17.214871 13.313750 3.368571
291 37 1 18.279971 13.313750 3.368571
292 37 1 19.345071 13.313750 3.368571
293 37 1 20.410171 13.313750 3.368571
294 37 1 21.475271 13.313750 3.368571
295 37 1 22.540371 13.313750 3.368571
296 37 1 23.605471 13.313750 3.368571
297 38 1 24.670571 13.313750 3.368571
298 38 1 25.735671 13.313750 3.368571
299 38 1 26.800771 13.313750 3.368571
300 38 1 26.800771 14.378850 3.368571
301 38 1 25.735671 14.378850 3.368571
302 38 1 24.670571 14.378850 3.368571
303 38 1 23.605471 14.378850 3.368571
304 38 1 22.540371 14.378850 3.368571
305 39 1 21.475271 14.378850 3.368571
306 39 1 20.410171 14.378850 3.368571
307 39 1 19.345071 14.378850 3.368571
308 39 1 18.279971 14.378850 3.368571
309 39 1 17.214871 14.378850 3.368571
310 39 1 16.149771 14.378850 3.368571
311 39 1 15.084671 14.378850 3.368571
312 39 1 14.019571 14.378850 3.368571
313 40 1 12.954471 14.378850 3.368571
314 40 1 11.889371 14.378850 3.368571
315 40 1 10.824271 14.378850 3.368571
316 40 1 9.759171 14.378850 3.368571
317 40 1 8.694071 14.378850 3.368571
318 40 1 7.628971 14.378850 3.368571
319 40 1 6.563871 14.378850 3.368571
320 40 1 5.498771 14.378850 3.368571
321 41 1 4.433671 14.378850 3.368571
322 41 1 3.368571 14.378850 3.368571
323 41 1 3.368571 15.443950 3.368571
324 41 1 4.433671 15.443950 3.368571
325 41 1 5.498771 15.443950 3.368571
326 41 1 6.563871 15.443950 3.368571
327 41 1 7.628971 15.443950 3.368571
328 41 1 8.694071 15.443950 3.368571
329 42 1 9.759171 15.443950 3.368571
330 42 1 10.824271 15.443950 3.368571
331 42 1 11.889371 15.443950 3.368571
332 42 1 12.954471 15.443950 3.368571
333 42 1 14.019571 15.443950 3.368571
334 42 1 15.084671 15.443950 3.368571
335 42 1 16.149771 15.443950 3.368571
336 42 1 17.214871 15.443950 3.368571
337 43 1 18.279971 15.443950 3.368571
338 43 1 19.345071 15.443950 3.368571
339 43 1 20.410171 15.443950 3.368571
340 43 1 21.475271 15.443950 3.368571
341 43 1 22.540371 15.443950 3.368571
342 43 1 23.605471 15.443950 3.368571
343 43 1 24.670571 15.443950 3.368571
344 43 1 25.735671 15.443950 3.368571
345 44 1 26.800771 15.443950 3.368571
346 44 1 26.800771 16.509050 3.368571
347 44 1 25.735671 16.509050 3.368571
348 44 1 24.670571 16.509050 3.368571
349 44 1 23.605471 16.509050 3.368571
350 44 1 22.540371 16.509050 3.368571
351 44 1 21.475271 16.509050 3.368571
352 44 1 20.410171 16.509050 3.368571
353 45 1 19.345071 16.509050 3.368571
354 45 1 18.279971 16.509050 3.368571
355 45 1 17.214871 16.509050 3.368571
356 45 1 16.149771 16.509050 3.368571
357 45 1 15.084671 16.509050 3.368571
358 45 1 14.019571 16.509050 3.368571
359 45 1 12.954471 16.509050 3.368571
360 45 1 11.889371 16.509050 3.368571
361 46 1 10.824271 16.509050 3.368571
362 46 1 9.759171 16.509050 3.368571
363 46 1 8.694071 16.509050 3.368571
364 46 1 7.628971 16.509050 3.368571
365 46 1 6.563871 16.509050 3.368571
366 46 1 5.498771 16.509050 3.368571
367 46 1 4.433671 16.509050 3.368571
368 46 1 3.368571 16.509050 3.368571
369 47 1 3.368571 17.574150 3.368571
370 47 1 4.433671 17.574150 3.368571
371 47 1 5.498771 17.574150 3.368571
372 47 1 6.563871 17.574150 3.368571
373 47 1 7.628971 17.574150 3.368571
374 47 1 8.694071 17.574150 3.368571
375 47 1 9.759171 17.574150 3.368571
376 47 1 10.824271 17.574150 3.368571
377 48 1 11.889371 17.574150 3.368571
378 48 1 12.954471 17.574150 3.368571
379 48 1 14.019571 17.574150 3.368571
380 48 1 15.084671 17.574150 3.368571
381 48 1 16.149771 17.574150 3.368571
382 48 1 17.214871 17.574150 3.368571
383 48 1 18.279971 17.574150 3.368571
384 48 1 19.345071 17.574150 3.368571
385 49 1 20.410171 17.574150 3.368571
386 49 1 21.475271 17.574150 3.368571
387 49 1 22.540371 17.574150 3.368571
388 49 1 23.605471 17.574150 3.368571
389 49 1 24.670571 17.574150 3.368571
390 49 1 25.735671 17.574150 3.368571
391 49 1 26.800771 17.574150 3.368571
392 49 1 26.800771 18.639250 3.368571
393 50 1 25.735671 18.639250 3.368571
394 50 1 24.670571 18.639250 3.368571
395 50 1 23.605471 18.639250 3.368571
396 50 1 22.540371 18.639250 3.368571
397 50 1 21.475271 18.639250 3.368571
398 50 1 20.410171 18.639250 3.368571
399 50 1 19.345071 18.639250 3.368571
400 50 1 18.279971 18.639250 3.368571
401 51 1 17.214871 18.639250 3.368571
402 51 1 16.149771 18.639250 3.368571
403 51 1 15.084671 18.639250 3.368571
404 51 1 14.019571 18.639250 3.368571
405 51 1 12.954471 18.639250 3.368571
406 51 1 11.889371 18.639250 3.368571
407 51 1 10.824271 18.639250 3.368571
408 51 1 9.759171 18.639250 3.368571
409 52 1 8.694071 18.639250 3.368571
410 52 1 7.628971 18.639250 3.368571
411 52 1 6.563871 18.639250 3.368571
412 52 1 5.498771 18.639250 3.368571
413 52 1 4.433671 18.639250 3.368571
414 52 1 3.368571 18.639250 3.368571
415 52 1 3.368571 19.704350 3.368571
416 52 1 4.433671 19.704350 3.368571
417 53 1 5.498771 19.704350 3.368571
418 53 1 6.563871 19.704350 3.368571
419 53 1 7.628971 19.704350 3.368571
420 53 1 8.694071 19.704350 3.368571
421 53 1 9.759171 19.704350 3.368571
422 53 1 10.824271 19.704350 3.368571
423 53 1 11.889371 19.704350 3.368571
424 53 1 12.954471 19.704350 3.368571
425 54 1 14.019571 19.704350 3.368571
426 54 1 15.084671 19.704350 3.368571
427 54 1 16.149771 19.704350 3.368571
428 54 1 17.214871 19.704350 3.368571
429 54 1 18.279971 19.704350 3.368571
430 54 1 19.345071 19.704350 3.368571
431 54 1 20.410171 19.704350 3.368571
432 54 1 21.475271 19.704350 3.368571
433 55 1 22.540371 19.704350 3.368571
434 55 1 23.605471 19.704350 3.368571
435 55 1 24.670571 19.704350 3.368571
436 55 1 25.735671 19.704350 3.368571
437 55 1 26.800771 19.704350 3.368571
438 55 1 26.800771 20.769450 3.368571
439 55 1 25.735671 20.769450 3.368571
440 55 1 24.670571 20.769450 3.368571
441 56 1 23.605471 20.769450 3.368571
442 56 1 22.540371 20.769450 3.368571
443 56 1 21.475271 20.769450 3.368571
444 56 1 20.410171 20.769450 3.368571
445 56 1 19.345071 20.769450 3.368571
446 56 1 18.279971 20.769450 3.368571
447 56 1 17.214871 20.769450 3.368571
448 56 1 16.149771 20.769450 3.368571
449 57 1 15.084671 20.769450 3.368571
450 57 1 14.019571 20.769450 3.368571
451 57 1 12.954471 20.769450 3.368571
452 57 1 11.889371 20.769450 3.368571
453 57 1 10.824271 20.769450 3.368571
454 57 1 9.759171 20.769450 3.368571
455 57 1 8.694071 20.769450 3.368571
456 57 1 7.628971 20.769450 3.368571
457 58 1 6.563871 20.769450 3.368571
458 58 1 5.498771 20.769450 3.368571
459 58 1 4.433671 20.769450 3.368571
460 58 1 3.368571 20.769450 3.368571
461 58 1 3.368571 21.834550 3.368571
462 58 1 4.433671 21.834550 3.368571
463 58 1 5.498771 21.834550 3.368571
464 58 1 6.563871 21.834550 3.368571
465 59 1 7.628971 21.834550 3.368571
466 59 1 8.694071 21.834550 3.368571
467 59 1 9.759171 21.834550 3.368571
468 59 1 10.824271 21.834550 3.368571
469 59 1 11.889371 21.834550 3.368571
470 59 1 12.954471 21.834550 3.368571
471 59 1 14.019571 21.834550 3.368571
472 59 1 15.084671 21.834550 3.368571
473 60 1 16.149771 21.834550 3.368571
474 60 1 17.214871 21.834550 3.368571
475 60 1 18.279971 21.834550 3.368571
476 60 1 19.345071 21.834550 3.368571
477 60 1 20.410171 21.834550 3.368571
478 60 1 21.475271 21.834550 3.368571
479 60 1 22.540371 21.834550 3.368571
480 60 1 23.605471 21.834550 3.368571
481 61 1 24.670571 21.834550 3.368571
482 61 1 25.735671 21.834550 3.368571
483 61 1 26.800771 21.834550 3.368571
484 61 1 26.800771 22.899650 3.368571
485 61 1 25.735671 22.899650 3.368571
486 61 1 24.670571 22.899650 3.368571
487 61 1 23.605471 22.899650 3.368571
488 61 1 22.540371 22.899650 3.368571
489 62 1 21.475271 22.899650 3.368571
490 62 1 20.410171 22.899650 3.368571
491 62 1 19.345071 22.899650 3.368571
492 62 1 18.279971 22.899650 3.368571
493 62 1 17.214871 22.899650 3.368571
494 62 1 16.149771 22.899650 3.368571
495 62 1 15.084671 22.899650 3.368571
496 62 1 14.019571 22.899650 3.368571
497 63 1 12.954471 22.899650 3.368571
498 63 1 11.889371 22.899650 3.368571
499 63 1 10.824271 22.899650 3.368571
500 63 1 9.759171 22.899650 3.368571
501 63 1 8.694071 22.899650 3.368571
502 63 1 7.628971 22.899650 3.368571
503 63 1 6.563871 22.899650 3.368571
504 63 1 5.498771 22.899650 3.368571
505 64 1 4.433671 22.899650 3.368571
506 64 1 3.368571 22.899650 3.368571
507 64 1 3.368571 23.964750 3.368571
508 64 1 4.433671 23.964750 3.368571
509 64 1 5.498771 23.964750 3.368571
510 64 1 6.563871 23.964750 3.368571
511 64 1 7.628971 23.964750 3.368571
512 64 1 8.694071 23.964750 3.368571
513 65 1 9.759171 23.964750 3.368571
514 65 1 10.824271 23.964750 3.368571
515 65 1 11.889371 23.964750 3.368571
516 65 1 12.954471 23.964750 3.368571
517 65 1 14.019571 23.964750 3.368571
518 65 1 15.084671 23.964750 3.368571
519 65 1 16.149771 23.964750 3.368571
520 65 1 17.214871 23.964750 3.368571
521 66 1 18.279971 23.964750 3.368571
522 66 1 19.345071 23.964750 3.368571
523 66 1 20.410171 23.964750 3.368571
524 66 1 21.475271 23.964750 3.368571
525 66 1 22.540371 23.964750 3.368571
526 66 1 23.605471 23.964750 3.368571
527 66 1 24.670571 23.964750 3.368571
528 66 1 25.735671 23.964750 3.368571
529 67 1 26.800771 23.964750 3.368571
530 67 1 26.800771 25.029850 3.368571
531 67 1 25.735671 25.029850 3.368571
532 67 1 24.670571 25.029850 3.368571
533 67 1 23.605471 25.029850 3.368571
534 67 1 22.540371 25.029850 3.368571
535 67 1 21.475271 25.029850 3.368571
536 67 1 20.410171 25.029850 3.368571
537 68 1 19.345071 25.029850 3.368571
538 68 1 18.279971 25.029850 3.368571
539 68 1 17.214871 25.029850 3.368571
540 68 1 16.149771 25.029850 3.368571
541 68 1 15.084671 25.029850 3.368571
542 68 1 14.019571 25.029850 3.368571
543 68 1 12.954471 25.029850 3.368571
544 68 1 11.889371 25.029850 3.368571
545 69 1 10.824271 25.029850 3.368571
546 69 1 9.759171 25.029850 3.368571
547 69 1 8.694071 25.029850 3.368571
548 69 1 7.628971 25.029850 3.368571
549 69 1 6.563871 25.029850 3.368571
550 69 1 5.498771 25.029850 3.368571
551 69 1 4.433671 25.029850 3.368571
552 69 1 3.368571 25.029850 3.368571
553 70 1 3.368571 26.094950 3.368571
554 70 1 4.433671 26.094950 3.368571
555 70 1 5.498771 26.094950 3.368571
556 70 1 6.563871 26.094950 3.368571
557 70 1 7.628971 26.094950 3.368571
558 70 1 8.694071 26.094950 3.368571
559 70 1 9.759171 26.094950 3.368571
560 70 1 10.824271 26.094950 3.368571
561 71 1 11.889371 26.094950 3.368571
562 71 1 12.954471 26.094950 3.368571
563 71 1 14.019571 26.094950 3.368571
564 71 1 15.084671 26.094950 3.368571
565 71 1 16.149771 26.094950 3.368571
566 71 1 17.214871 26.094950 3.368571
567 71 1 18.279971 26.094950 3.368571
568 71 1 19.345071 26.094950 3.368571
569 72 1 20.410171 26.094950 3.368571
570 72 1 21.475271 26.094950 3.368571
571 72 1 22.540371 26.094950 3.368571
572 72 1 23.605471 26.094950 3.368571
573 72 1 24.670571 26.094950 3.368571
574 72 1 25.735671 26.094950 3.368571
575 72 1 26.800771 26.094950 3.368571
576 72 1 26.800771 27.160050 3.368571
577 73 1 25.735671 27.160050 3.368571
578 73 1 24.670571 27.160050 3.368571
579 73 1 23.605471 27.160050 3.368571
580 73 1 22.540371 27.160050 3.368571
581 73 1 21.475271 27.160050 3.368571
582 73 1 20.410171 27.160050 3.368571
583 73 1 19.345071 27.160050 3.368571
584 73 1 18.279971 27.160050 3.368571
585 74 1 17.214871 27.160050 3.368571
586 74 1 16.149771 27.160050 3.368571
587 74 1 15.084671 27.160050 3.368571
588 74 1 14.019571 27.160050 3.368571
589 74 1 12.954471 27.160050 3.368571
590 74 1 11.889371 27.160050 3.368571
591 74 1 10.824271 27.160050 3.368571
592 74 1 9.759171 27.160050 3.368571
593 75 1 8.694071 27.160050 3.368571
594 75 1 7.628971 27.160050 3.368571
595 75 1 6.563871 27.160050 3.368571
596 75 1 5.498771 27.160050 3.368571
597 75 1 4.433671 27.160050 3.368571
598 75 1 3.368571 27.160050 3.368571
599 75 1 3.368571 28.225150 3.368571
600 75 1 4.433671 28.225150 3.368571
601 76 1 5.498771 28.225150 3.368571
602 76 1 6.563871 28.225150 3.368571
603 76 1 7.628971 28.225150 3.368571
604 76 1 8.694071 28.225150 3.368571
605 76 1 9.759171 28.225150 3.368571
606 76 1 10.824271 28.225150 3.368571
607 76 1 11.889371 28.225150 3.368571
608 76 1 12.954471 28.225150 3.368571
609 77 1 14.019571 28.225150 3.368571
610 77 1 15.084671 28.225150 3.368571
611 77 1 16.149771 28.225150 3.368571
612 77 1 17.214871 28.225150 3.368571
613 77 1 18.279971 28.225150 3.368571
614 77 1 19.345071 28.225150 3.368571
615 77 1 20.410171 28.225150 3.368571
616 77 1 21.475271 28.225150 3.368571
617 78 1 22.540371 28.225150 3.368571
618 78 1 23.605471 28.225150 3.368571
619 78 1 24.670571 28.225150 3.368571
620 78 1 25.735671 28.225150 3.368571
621 78 1 26.800771 28.225150 3.368571
622 78 1 26.800771 29.290250 3.368571
623 78 1 25.735671 29.290250 3.368571
624 78 1 24.670571 29.290250 3.368571
625 79 1 23.605471 29.290250 3.368571
626 79 1 22.540371 29.290250 3.368571
627 79 1 21.475271 29.290250 3.368571
628 79 1 20.410171 29.290250 3.368571
629 79 1 19.345071 29.290250 3.368571
630 79 1 18.279971 29.290250 3.368571
631 79 1 17.214871 29.290250 3.368571
632 79 1 16.149771 29.290250 3.368571
633 80 1 15.084671 29.290250 3.368571
634 80 1 14.019571 29.290250 3.368571
635 80 1 12.954471 29.290250 3.368571
636 80 1 11.889371 29.290250 3.368571
637 80 1 10.824271 29.290250 3.368571
638 80 1 9.759171 29.290250 3.368571
639 80 1 8.694071 29.290250 3.368571
640 80 1 7.628971 29.290250 3.368571
641 81 1 6.563871 29.290250 3.368571
642 81 1 5.498771 29.290250 3.368571
643 81 1 4.433671 29.290250 3.368571
644 81 1 3.368571 29.290250 3.368571
645 81 1 3.368571 30.355350 3.368571
646 81 1 4.433671 30.355350 3.368571
647 81 1 5.498771 30.355350 3.368571
648 81 1 6.563871 30.355350 3.368571
649 82 1 7.628971 30.355350 3.368571
650 82 1 8.694071 30.355350 3.368571
651 82 1 9.759171 30.355350 3.368571
652 82 1 10.824271 30.355350 3.368571
653 82 1 11.889371 30.355350 3.368571
654 82 1 12.954471 30.355350 3.368571
655 82 1 14.019571 30.355350 3.368571
656 82 1 15.084671 30.355350 3.368571
657 83 1 16.149771 30.355350 3.368571
658 83 1 17.214871 30.355350 3.368571
659 83 1 18.279971 30.355350 3.368571
660 83 1 19.345071 30.355350 3.368571
661 83 1 20.410171 30.355350 3.368571
662 83 1 21.475271 30.355350 3.368571
663 83 1 22.540371 30.355350 3.368571
664 83 1 23.605471 30.355350 3.368571
665 84 1 24.670571 30.355350 3.368571
666 84 1 25.735671 30.355350 3.368571
667 84 1 26.800771 30.355350 3.368571
668 84 1 26.800771 31.420450 3.368571
669 84 1 25.735671 31.420450 3.368571
670 84 1 24.670571 31.420450 3.368571
671 84 1 23.605471 31.420450 3.368571
672 84 1 22.540371 31.420450 3.368571
673 85 1 21.475271 31.420450 3.368571
674 85 1 20.410171 31.420450 3.368571
675 85 1 19.345071 31.420450 3.368571
676 85 1 18.279971 31.420450 3.368571
677 85 1 17.214871 31.420450 3.368571
678 85 1 16.149771 31.420450 3.368571
679 85 1 15.084671 31.420450 3.368571
680 85 1 14.019571 31.420450 3.368571
681 86 1 12.954471 31.420450 3.368571
682 86 1 11.889371 31.420450 3.368571
683 86 1 10.824271 31.420450 3.368571
684 86 1 9.759171 31.420450 3.368571
685 86 1 8.694071 31.420450 3.368571
686 86 1 7.628971 31.420450 3.368571
687 86 1 6.563871 31.420450 3.368571
688 86 1 5.498771 31.420450 3.368571
689 87 1 4.433671 31.420450 3.368571
690 87 1 3.368571 31.420450 3.368571
691 87 1 3.368571 32.485550 3.368571
692 87 1 4.433671 32.485550 3.368571
693 87 1 5.498771 32.485550 3.368571
694 87 1 6.563871 32.485550 3.368571
695 87 1 7.628971 32.485550 3.368571
696 87 1 8.694071 32.485550 3.368571
697 88 1 9.759171 32.485550 3.368571
698 88 1 10.824271 32.485550 3.368571
699 88 1 11.889371 32.485550 3.368571
700 88 1 12.954471 32.485550 3.368571
701 88 1 14.019571 32.485550 3.368571
702 88 1 15.084671 32.485550 3.368571
703 88 1 16.149771 32.485550 3.368571
704 88 1 17.214871 32.485550 3.368571
705 89 1 18.279971 32.485550 3.368571
706 89 1 19.345071 32.485550 3.368571
707 89 1 20.410171 32.485550 3.368571
708 89 1 21.475271 32.485550 3.368571
709 89 1 22.540371 32.485550 3.368571
710 89 1 23.605471 32.485550 3.368571
711 89 1 24.670571 32.485550 3.368571
712 89 1 25.735671 32.485550 3.368571
713 90 1 26.800771 32.485550 3.368571
714 90 1 26.800771 33.550650 3.368571
715 90 1 25.735671 33.550650 3.368571
716 90 1 24.670571 33.550650 3.368571
717 90 1 23.605471 33.550650 3.368571
718 90 1 22.540371 33.550650 3.368571
719 90 1 21.475271 33.550650 3.368571
720 90 1 20.410171 33.550650 3.368571
721 91 1 19.345071 33.550650 3.368571
722 91 1 18.279971 33.550650 3.368571
723 91 1 17.214871 33.550650 3.368571
724 91 1 16.149771 33.550650 3.368571
725 91 1 15.084671 33.550650 3.368571
726 91 1 14.019571 33.550650 3.368571
727 91 1 12.954471 33.550650 3.368571
728 91 1 11.889371 33.550650 3.368571
729 92 1 10.824271 33.550650 3.368571
730 92 1 9.759171 33.550650 3.368571
731 92 1 8.694071 33.550650 3.368571
732 92 1 7.628971 33.550650 3.368571
733 92 1 6.563871 33.550650 3.368571
734 92 1 5.498771 33.550650 3.368571
735 92 1 4.433671 33.550650 3.368571
736 92 1 3.368571 33.550650 3.368571
737 93 1 3.368571 33.550650 4.433671
738 93 1 4.433671 33.550650 4.433671
739 93 1 5.498771 33.550650 4.433671
740 93 1 6.563871 33.550650 4.433671
741 93 1 7.628971 33.550650 4.433671
742 93 1 8.694071 33.550650 4.433671
743 93 1 9.759171 33.550650 4.433671
744 93 1 10.824271 33.550650 4.433671
745 94 1 11.889371 33.550650 4.433671
746 94 1 12.954471 33.550650 4.433671
747 94 1 14.019571 33.550650 4.433671
748 94 1 15.084671 33.550650 4.433671
749 94 1 16.149771 33.550650 4.433671
750 94 1 17.214871 33.550650 4.433671
751 94 1 18.279971 33.550650 4.433671
752 94 1 19.345071 33.550650 4.433671
753 95 1 20.410171 33.550650 4.433671
754 95 1 21.475271 33.550650 4.433671
755 95 1 22.540371 33.550650 4.433671
756 95 1 23.605471 33.550650 4.433671
757 95 1 24.670571 33.550650 4.433671
758 95 1 25.735671 33.550650 4.433671
759 95 1 26.800771 33.550650 4.433671
760 95 1 26.800771 32.485550 4.433671
761 96 1 25.735671 32.485550 4.433671
762 96 1 24.670571 32.485550 4.433671
763 96 1 23.605471 32.485550 4.433671
764 96 1 22.540371 32.485550 4.433671
765 96 1 21.475271 32.485550 4.433671
766 96 1 20.410171 32.485550 4.433671
767 96 1 19.345071 32.485550 4.433671
768 96 1 18.279971 32.485550 4.433671
769 97 1 17.214871 32.485550 4.433671
770 97 1 16.149771 32.485550 4.433671
771 97 1 15.084671 32.485550 4.433671
772 97 1 14.019571 32.485550 4.433671
773 97 1 12.954471 32.485550 4.433671
774 97 1 11.889371 32.485550 4.433671
775 97 1 10.824271 32.485550 4.433671
776 97 1 9.759171 32.485550 4.433671
777 98 1 8.694071 32.485550 4.433671
778 98 1 7.628971 32.485550 4.433671
779 98 1 6.563871 32.485550 4.433671
780 98 1 5.498771 32.485550 4.433671
781 98 1 4.433671 32.485550 4.433671
782 98 1 3.368571 32.485550 4.433671
783 98 1 3.368571 31.420450 4.433671
784 98 1 4.433671 31.420450 4.433671
785 99 1 5.498771 31.420450 4.433671
786 99 1 6.563871 31.420450 4.433671
787 99 1 7.628971 31.420450 4.433671
788 99 1 8.694071 31.420450 4.433671
789 99 1 9.759171 31.420450 4.433671
790 99 1 10.824271 31.420450 4.433671
791 99 1 11.889371 31.420450 4.433671
792 99 1 12.954471 31.420450 4.433671
793 100 1 14.019571 31.420450 4.433671
794 100 1 15.084671 31.420450 4.433671
795 100 1 16.149771 31.420450 4.433671
796 100 1 17.214871 31.420450 4.433671
797 100 1 18.279971 31.420450 4.433671
798 100 1 19.345071 31.420450 4.433671
799 100 1 20.410171 31.420450 4.433671
800 100 1 21.475271 31.420450 4.433671