LAMMPS data file for tank.MD

40455 atoms
26040 bonds
0 angles
0 dihedrals
0 impropers

2 atom types
1 bond types
0 angle types
0 dihedral types
0 improper types

0.0 39.0 xlo xhi
0.0 34.5 ylo yhi
0.0 48.0 zlo zhi

Atoms

1 1 1 3.901121 0.532550 3.368571
2 1 1 4.966221 0.532550 3.368571
3 1 1 6.031321 0.532550 3.368571
4 1 1 7.096421 0.532550 3.368571
5 1 1 8.161521 0.532550 3.368571
6 1 1 9.226621 0.532550 3.368571
7 1 1 10.291721 0.532550 3.368571
8 1 1 11.356821 0.532550 3.368571
9 2 1 12.421921 0.532550 3.368571
10 2 1 13.487021 0.532550 3.368571
11 2 1 14.552121 0.532550 3.368571
12 2 1 15.617221 0.532550 3.368571
13 2 1 16.682321 0.532550 3.368571
14 2 1 17.747421 0.532550 3.368571
15 2 1 18.812521 0.532550 3.368571
16 2 1 19.877621 0.532550 3.368571
17 3 1 20.942721 0.532550 3.368571
18 3 1 22.007821 0.532550 3.368571
19 3 1 23.072921 0.532550 3.368571
20 3 1 24.138021 0.532550 3.368571
21 3 1 25.203121 0.532550 3.368571
22 3 1 26.268221 0.532550 3.368571
23 3 1 27.333321 0.532550 3.368571
24 3 1 28.398421 0.532550 3.368571
25 4 1 29.463521 0.532550 3.368571
26 4 1 30.528621 0.532550 3.368571
27 4 1 31.593721 0.532550 3.368571
28 4 1 32.658821 0.532550 3.368571
29 4 1 33.723921 0.532550 3.368571
30 4 1 34.789021 0.532550 3.368571
31 4 1 34.789021 1.597650 3.368571
32 4 1 33.723921 1.597650 3.368571
33 5 1 32.658821 1.597650 3.368571
34 5 1 31.593721 1.597650 3.368571
35 5 1 30.528621 1.597650 3.368571
36 5 1 29.463521 1.597650 3.368571
37 5 1 28.398421 1.597650 3.368571
38 5 1 27.333321 1.597650 3.368571
39 5 1 26.268221 1.597650 3.368571
40 5 1 25.203121 1.597650 3.368571
41 6 1 24.138021 1.597650 3.368571
42 6 1 23.072921 1.597650 3.368571
43 6 1 22.007821 1.597650 3.368571
44 6 1 20.942721 1.597650 3.368571
45 6 1 19.877621 1.597650 3.368571
46 6 1 18.812521 1.597650 3.368571
47 6 1 17.747421 1.597650 3.368571
48 6 1 16.682321 1.597650 3.368571
49 7 1 15.617221 1.597650 3.368571
50 7 1 14.552121 1.597650 3.368571
51 7 1 13.487021 1.597650 3.368571
52 7 1 12.421921 1.597650 3.368571
53 7 1 11.356821 1.597650 3.368571
54 7 1 10.291721 1.597650 3.368571
55 7 1 9.226621 1.597650 3.368571
56 7 1 8.161521 1.597650 3.368571
57 8 1 7.096421 1.597650 3.368571
58 8 1 6.031321 1.597650 3.368571
59 8 1 4.966221 1.597650 3.368571
60 8 1 3.901121 1.597650 3.368571
61 8 1 3.901121 2.662750 3.368571
62 8 1 4.966221 2.662750 3.368571
63 8 1 6.031321 2.662750 3.368571
64 8 1 7.096421 2.662750 3.368571
65 9 1 8.161521 2.662750 3.368571
66 9 1 9.226621 2.662750 3.368571
67 9 1 10.291721 2.662750 3.368571
68 9 1 11.356821 2.662750 3.368571
69 9 1 12.421921 2.662750 3.368571
70 9 1 13.487021 2.662750 3.368571
71 9 1 14.552121 2.662750 3.368571
72 9 1 15.617221 2.662750 3.368571
73 10 1 16.682321 2.662750 3.368571
74 10 1 17.747421 2.662750 3.368571
75 10 1 18.812521 2.662750 3.368571
76 10 1 19.877621 2.662750 3.368571
77 10 1 20.942721 2.662750 3.368571
78 10 1 22.007821 2.662750 3.368571
79 10 1 23.072921 2.662750 3.368571
80 10 1 24.138021 2.662750 3.368571
81 11 1 25.203121 2.662750 3.368571
82 11 1 26.268221 2.662750 3.368571
83 11 1 27.333321 2.662750 3.368571
84 11 1 28.398421 2.662750 3.368571
85 11 1 29.463521 2.662750 3.368571
86 11 1 30.528621 2.662750 3.368571
87 11 1 31.593721 2.662750 3.368571
88 11 1 32.658821 2.662750 3.368571
89 12 1 33.723921 2.662750 3.368571
90 12 1 34.789021 2.662750 3.368571
91 12 1 34.789021 3.727850 3.368571
92 12 1 33.723921 3.727850 3.368571
93 12 1 32.658821 3.727850 3.368571
94 12 1 31.593721 3.727850 3.368571
95 12 1 30.528621 3.727850 3.368571
96 12 1 29.463521 3.727850 3.368571
97 13 1 28.398421 3.727850 3.368571
98 13 1 27.333321 3.727850 3.368571
99 13 1 26.268221 3.727850 3.368571
100 13 1 25.203121 3.727850 3.368571
101 13 1 24.138021 3.727850 3.368571
102 13 1 23.072921 3.727850 3.368571
103 13 1 22.007821 3.727850 3.368571
104 13 1 20.942721 3.727850 3.368571
105 14 1 19.877621 3.727850 3.368571
106 14 1 18.812521 3.727850 3.368571
107 14 1 17.747421 3.727850 3.368571
108 14 1 16.682321 3.727850 3.368571
109 14 1 15.617221 3.727850 3.368571
110 14 1 14.552121 3.727850 3.368571
111 14 1 13.487021 3.727850 3.368571
112 14 1 12.421921 3.727850 3.368571
113 15 1 11.356821 3.727850 3.368571
114 15 1 10.291721 3.727850 3.368571
115 15 1 9.226621 3.727850 3.368571
116 15 1 8.161521 3.727850 3.368571
117 15 1 7.096421 3.727850 3.368571
118 15 1 6.031321 3.727850 3.368571
119 15 1 4.966221 3.727850 3.368571
120 15 1 3.901121 3.727850 3.368571
121 16 1 3.901121 4.792950 3.368571
122 16 1 4.966221 4.792950 3.368571
123 16 1 6.031321 4.792950 3.368571
124 16 1 7.096421 4.792950 3.368571
125 16 1 8.161521 4.792950 3.368571
126 16 1 9.226621 4.792950 3.368571
127 16 1 10.291721 4.792950 3.368571
128 16 1 11.356821 4.792950 3.368571
129 17 1 12.421921 4.792950 3.368571
130 17 1 13.487021 4.792950 3.368571
131 17 1 14.552121 4.792950 3.368571
132 17 1 15.617221 4.792950 3.368571
133 17 1 16.682321 4.792950 3.368571
134 17 1 17.747421 4.792950 3.368571
135 17 1 18.812521 4.792950 3.368571
136 17 1 19.877621 4.792950 3.368571
137 18 1 20.942721 4.792950 3.368571
138 18 1 22.007821 4.792950 3.368571
139 18 1 23.072921 4.792950 3.368571
140 18 1 24.138021 4.792950 3.368571
141 18 1 25.203121 4.792950 3.368571
142 18 1 26.268221 4.792950 3.368571
143 18 1 27.333321 4.792950 3.368571
144 18 1 28.398421 4.792950 3.368571
145 19 1 29.463521 4.792950 3.368571
146 19 1 30.528621 4.792950 3.368571
147 19 1 31.593721 4.792950 3.368571
148 19 1 32.658821 4.792950 3.368571
149 19 1 33.723921 4.792950 3.368571
150 19 1 34.789021 4.792950 3.368571
151 19 1 34.789021 5.858050 3.368571
152 19 1 33.723921 5.858050 3.368571
153 20 1 32.658821 5.858050 3.368571
154 20 1 31.593721 5.858050 3.368571
155 20 1 30.528621 5.858050 3.368571
156 20 1 29.463521 5.858050 3.368571
157 20 1 28.398421 5.858050 3.368571
158 20 1 27.333321 5.858050 3.368571
159 20 1 26.268221 5.858050 3.368571
160 20 1 25.203121 5.858050 3.368571
161 21 1 24.138021 5.858050 3.368571
162 21 1 23.072921 5.858050 3.368571
163 21 1 22.007821 5.858050 3.368571
164 21 1 20.942721 5.858050 3.368571
165 21 1 19.877621 5.858050 3.368571
166 21 1 18.812521 5.858050 3.368571
167 21 1 17.747421 5.858050 3.368571
168 21 1 16.682321 5.858050 3.368571
169 22 1 15.617221 5.858050 3.368571
170 22 1 14.552121 5.858050 3.368571
171 22 1 13.487021 5.858050 3.368571
172 22 1 12.421921 5.858050 3.368571
173 22 1 11.356821 5.858050 3.368571
174 22 1 10.291721 5.858050 3.368571
175 22 1 9.226621 5.858050 3.368571
176 22 1 8.161521 5.858050 3.368571
177 23 1 7.096421 5.858050 3.368571
178 23 1 6.031321 5.858050 3.368571
179 23 1 4.966221 5.858050 3.368571
180 23 1 3.901121 5.858050 3.368571
181 23 1 3.901121 6.923150 3.368571
182 23 1 4.966221 6.923150 3.368571
183 23 1 6.031321 6.923150 3.368571
184 23 1 7.096421 6.923150 3.368571
185 24 1 8.161521 6.923150 3.368571
186 24 1 9.226621 6.923150 3.368571
187 24 1 10.291721 6.923150 3.368571
188 24 1 11.356821 6.923150 3.368571
189 24 1 12.421921 6.923150 3.368571
190 24 1 13.487021 6.923150 3.368571
191 24 1 14.552121 6.923150 3.368571
192 24 1 15.617221 6.923150 3.368571
193 25 1 16.682321 6.923150 3.368571
194 25 1 17.747421 6.923150 3.368571
195 25 1 18.812521 6.923150 3.368571
196 25 1 19.877621 6.923150 3.368571
197 25 1 20.942721 6.923150 3.368571
198 25 1 22.007821 6.923150 3.368571
199 25 1 23.072921 6.923150 3.368571
200 25 1 24.138021 6.923150 3.368571
201 26 1 25.203121 6.923150 3.368571
202 26 1 26.268221 6.923150 3.368571
203 26 1 27.333321 6.923150 3.368571
204 26 1 28.398421 6.923150 3.368571
205 26 1 29.463521 6.923150 3.368571
206 26 1 30.528621 6.923150 3.368571
207 26 1 31.593721 6.923150 3.368571
208 26 1 32.658821 6.923150 3.368571
209 27 1 33.723921 6.923150 3.368571
210 27 1 34.789021 6.923150 3.368571
211 27 1 34.789021 7.988250 3.368571
212 27 1 33.723921 7.988250 3.368571
213 27 1 32.658821 7.988250 3.368571
214 27 1 31.593721 7.988250 3.368571
215 27 1 30.528621 7.988250 3.368571
216 27 1 29.463521 7.988250 3.368571
217 28 1 28.398421 7.988250 3.368571
218 28 1 27.333321 7.988250 3.368571
219 28 1 26.268221 7.988250 3.368571
220 28 1 25.203121 7.988250 3.368571
221 28 1 24.138021 7.988250 3.368571
222 28 1 23.072921 7.988250 3.368571
223 28 1 22.007821 7.988250 3.368571
224 28 1 20.942721 7.988250 3.368571
225 29 1 19.877621 7.988250 3.368571
226 29 1 18.812521 7.988250 3.368571
227 29 1 17.747421 7.988250 3.368571
228 29 1 16.682321 7.988250 3.368571
229 29 1 15.617221 7.988250 3.368571
230 29 1 14.552121 7.988250 3.368571
231 29 1 13.487021 7.988250 3.368571
232 29 1 12.421921 7.988250 3.368571
233 30 1 11.356821 7.988250 3.368571
234 30 1 10.291721 7.988250 3.368571
235 30 1 9.226621 7.988250 3.368571
236 30 1 8.161521 7.988250 3.368571
237 30 1 7.096421 7.988250 3.368571
238 30 1 6.031321 7.988250 3.368571
239 30 1 4.966221 7.988250 3.368571
240 30 1 3.901121 7.988250 3.368571
241 31 1 3.901121 9.053350 3.368571
242 31 1 4.966221 9.053350 3.368571
243 31 1 6.031321 9.053350 3.368571
244 31 1 7.096421 9.053350 3.368571
245 31 1 8.161521 9.053350 3.368571
246 31 1 9.226621 9.053350 3.368571
247 31 1 10.291721 9.053350 3.368571
248 31 1 11.356821 9.053350 3.368571
249 32 1 12.421921 9.053350 3.368571
250 32 1 13.487021 9.053350 3.368571
251 32 1 14.552121 9.053350 3.368571
252 32 1 15.617221 9.053350 3.368571
253 32 1 16.682321 9.053350 3.368571
254 32 1 17.747421 9.053350 3.368571
255 32 1 18.812521 9.053350 3.368571
256 32 1 19.877621 9.053350 3.368571
257 33 1 20.942721 9.053350 3.368571
258 33 1 22.007821 9.053350 3.368571
259 33 1 23.072921 9.053350 3.368571
260 33 1 24.138021 9.053350 3.368571
261 33 1 25.203121 9.053350 3.368571
262 33 1 26.268221 9.053350 3.368571
263 33 1 27.333321 9.053350 3.368571
264 33 1 28.398421 9.053350 3.368571
265 34 1 29.463521 9.053350 3.368571
266 34 1 30.528621 9.053350 3.368571
267 34 1 31.593721 9.053350 3.368571
268 34 1 32.658821 9.053350 3.368571
269 34 1 33.723921 9.053350 3.368571
270 34 1 34.789021 9.053350 3.368571
271 34 1 34.789021 10.118450 3.368571
272 34 1 33.723921 10.118450 3.368571
273 35 1 32.658821 10.118450 3.368571
274 35 1 31.593721 10.118450 3.368571
275 35 1 30.528621 10.118450 3.368571
276 35 1 29.463521 10.118450 3.368571
277 35 1 28.398421 10.118450 3.368571
278 35 1 27.333321 10.118450 3.368571
279 35 1 26.268221 10.118450 3.368571
280 35 1 25.203121 10.118450 3.368571
281 36 1 24.138021 10.118450 3.368571
282 36 1 23.072921 10.118450 3.368571
283 36 1 22.007821 10.118450 3.368571
284 36 1 20.942721 10.118450 3.368571
285 36 1 19.877621 10.118450 3.368571
286 36 1 18.812521 10.118450 3.368571
287 36 1 17.747421 10.118450 3.368571
288 36 1 16.682321 10.118450 3.368571
289 37 1 15.617221 10.118450 3.368571
290 37 1 14.552121 10.118450 3.368571
291 37 1 13.487021 10.118450 3.368571
292 37 1 12.421921 10.118450 3.368571
293 37 1 11.356821 10.118450 3.368571
294 37 1 10.291721 10.118450 3.368571
295 37 1 9.226621 10.118450 3.368571
296 37 1 8.161521 10.118450 3.368571
297 38 1 7.096421 10.118450 3.368571
298 38 1 6.031321 10.118450 3.368571
299 38 1 4.966221 10.118450 3.368571
300 38 1 3.901121 10.118450 3.368571
301 38 1 3.901121 11.183550 3.368571
302 38 1 4.966221 11.183550 3.368571
303 38 1 6.031321 11.183550 3.368571
304 38 1 7.096421 11.183550 3.368571
305 39 1 8.161521 11.183550 3.368571
306 39 1 9.226621 11.183550 3.368571
307 39 1 10.291721 11.183550 3.368571
308 39 1 11.356821 11.183550 3.368571
309 39 1 12.421921 11.183550 3.368571
310 39 1 13.487021 11.183550 3.368571
311 39 1 14.552121 11.183550 3.368571
312 39 1 15.617221 11.183550 3.368571
313 40 1 16.682321 11.183550 3.368571
314 40 1 17.747421 11.183550 3.368571
315 40 1 18.812521 11.183550 3.368571
316 40 1 19.877621 11.183550 3.368571
317 40 1 20.942721 11.183550 3.368571
318 40 1 22.007821 11.183550 3.368571
319 40 1 23.072921 11.183550 3.368571
320 40 1 24.138021 11.183550 3.368571
321 41 1 25.203121 11.183550 3.368571
322 41 1 26.268221 11.183550 3.368571
323 41 1 27.333321 11.183550 3.368571
324 41 1 28.398421 11.183550 3.368571
325 41 1 29.463521 11.183550 3.368571
326 41 1 30.528621 11.183550 3.368571
327 41 1 31.593721 11.183550 3.368571
328 41 1 32.658821 11.183550 3.368571
329 42 1 33.723921 11.183550 3.368571
330 42 1 34.789021 11.183550 3.368571
331 42 1 34.789021 12.248650 3.368571
332 42 1 33.723921 12.248650 3.368571
333 42 1 32.658821 12.248650 3.368571
334 42 1 31.593721 12.248650 3.368571
335 42 1 30.528621 12.248650 3.368571
336 42 1 29.463521 12.248650 3.368571
337 43 1 28.398421 12.248650 3.368571
338 43 1 27.333321 12.248650 3.368571
339 43 1 26.268221 12.248650 3.368571
340 43 1 25.203121 12.248650 3.368571
341 43 1 24.138021 12.248650 3.368571
342 43 1 23.072921 12.248650 3.368571
343 43 1 22.007821 12.248650 3.368571
344 43 1 20.942721 12.248650 3.368571
345 44 1 19.877621 12.248650 3.368571
346 44 1 18.812521 12.248650 3.368571
347 44 1 17.747421 12.248650 3.368571
348 44 1 16.682321 12.248650 3.368571
349 44 1 15.617221 12.248650 3.368571
350 44 1 14.552121 12.248650 3.368571
351 44 1 13.487021 12.248650 3.368571
352 44 1 12.421921 12.248650 3.368571
353 45 1 11.356821 12.248650 3.368571
354 45 1 10.291721 12.248650 3.368571
355 45 1 9.226621 12.248650 3.368571
356 45 1 8.161521 12.248650 3.368571
357 45 1 7.096421 12.248650 3.368571
358 45 1 6.031321 12.248650 3.368571
359 45 1 4.966221 12.248650 3.368571
360 45 1 3.901121 12.248650 3.368571
361 46 1 3.901121 13.313750 3.368571
362 46 1 4.966221 13.313750 3.368571
363 46 1 6.031321 13.313750 3.368571
364 46 1 7.096421 13.313750 3.368571
365 46 1 8.161521 13.313750 3.368571
366 46 1 9.226621 13.313750 3.368571
367 46 1 10.291721 13.313750 3.368571
368 46 1 11.356821 13.313750 3.368571
369 47 1 12.421921 13.313750 3.368571
370 47 1 13.487021 13.313750 3.368571
371 47 1 14.552121 13.313750 3.368571
372 47 1 15.617221 13.313750 3.368571
373 47 1 16.682321 13.313750 3.368571
374 47 1 17.747421 13.313750 3.368571
375 47 1 18.812521 13.313750 3.368571
376 47 1 19.877621 13.313750 3.368571
377 48 1 20.942721 13.313750 3.368571
378 48 1 22.007821 13.313750 3.368571
379 48 1 23.072921 13.313750 3.368571
380 48 1 24.138021 13.313750 3.368571
381 48 1 25.203121 13.313750 3.368571
382 48 1 26.268221 13.313750 3.368571
383 48 1 27.333321 13.313750 3.368571
384 48 1 28.398421 13.313750 3.368571
385 49 1 29.463521 13.313750 3.368571
386 49 1 30.528621 13.313750 3.368571
387 49 1 31.593721 13.313750 3.368571
388 49 1 32.658821 13.313750 3.368571
389 49 1 33.723921 13.313750 3.368571
390 49 1 34.789021 13.313750 3.368571
391 49 1 34.789021 14.378850 3.368571
392 49 1 33.723921 14.378850 3.368571
393 50 1 32.658821 14.378850 3.368571
394 50 1 31.593721 14.378850 3.368571
395 50 1 30.528621 14.378850 3.368571
396 50 1 29.463521 14.378850 3.368571
397 50 1 28.398421 14.378850 3.368571
398 50 1 27.333321 14.378850 3.368571
399 50 1 26.268221 14.378850 3.368571
400 50 1 25.203121 14.378850 3.368571
401 51 1 24.138021 14.378850 3.368571
402 51 1 23.072921 14.378850 3.368571
403 51 1 22.007821 14.378850 3.368571
404 51 1 20.942721 14.378850 3.368571
405 51 1 19.877621 14.378850 3.368571
406 51 1 18.812521 14.378850 3.368571
407 51 1 17.747421 14.378850 3.368571
408 51 1 16.682321 14.378850 3.368571
409 52 1 15.617221 14.378850 3.368571
410 52 1 14.552121 14.378850 3.368571
411 52 1 13.487021 14.378850 3.368571
412 52 1 12.421921 14.378850 3.368571
413 52 1 11.356821 14.378850 3.368571
414 52 1 10.291721 14.378850 3.368571
415 52 1 9.226621 14.378850 3.368571
416 52 1 8.161521 14.378850 3.368571
417 53 1 7.096421 14.378850 3.368571
418 53 1 6.031321 14.378850 3.368571
419 53 1 4.966221 14.378850 3.368571
420 53 1 3.901121 14.378850 3.368571
421 53 1 3.901121 15.443950 3.368571
422 53 1 4.966221 15.443950 3.368571
423 53 1 6.031321 15.443950 3.368571
424 53 1 7.096421 15.443950 3.368571
425 54 1 8.161521 15.443950 3.368571
426 54 1 9.226621 15.443950 3.368571
427 54 1 10.291721 15.443950 3.368571
428 54 1 11.356821 15.443950 3.368571
429 54 1 12.421921 15.443950 3.368571
430 54 1 13.487021 15.443950 3.368571
431 54 1 14.552121 15.443950 3.368571
432 54 1 15.617221 15.443950 3.368571
433 55 1 16.682321 15.443950 3.368571
434 55 1 17.747421 15.443950 3.368571
435 55 1 18.812521 15.443950 3.368571
436 55 1 19.877621 15.443950 3.368571
437 55 1 20.942721 15.443950 3.368571
438 55 1 22.007821 15.443950 3.368571
439 55 1 23.072921 15.443950 3.368571
440 55 1 24.138021 15.443950 3.368571
441 56 1 25.203121 15.443950 3.368571
442 56 1 26.268221 15.443950 3.368571
443 56 1 27.333321 15.443950 3.368571
444 56 1 28.398421 15.443950 3.368571
445 56 1 29.463521 15.443950 3.368571
446 56 1 30.528621 15.443950 3.368571
447 56 1 31.593721 15.443950 3.368571
448 56 1 32.658821 15.443950 3.368571
449 57 1 33.723921 15.443950 3.368571
450 57 1 34.789021 15.443950 3.368571
451 57 1 34.789021 16.509050 3.368571
452 57 1 33.723921 16.509050 3.368571
453 57 1 32.658821 16.509050 3.368571
454 57 1 31.593721 16.509050 3.368571
455 57 1 30.528621 16.509050 3.368571
456 57 1 29.463521 16.509050 3.368571
457 58 1 28.398421 16.509050 3.368571
458 58 1 27.333321 16.509050 3.368571
459 58 1 26.268221 16.509050 3.368571
460 58 1 25.203121 16.509050 3.368571
461 58 1 24.138021 16.509050 3.368571
462 58 1 23.072921 16.509050 3.368571
463 58 1 22.007821 16.509050 3.368571
464 58 1 20.942721 16.509050 3.368571
465 59 1 19.877621 16.509050 3.368571
466 59 1 18.812521 16.509050 3.368571
467 59 1 17.747421 16.509050 3.368571
468 59 1 16.682321 16.509050 3.368571
469 59 1 15.617221 16.509050 3.368571
470 59 1 14.552121 16.509050 3.368571
471 59 1 13.487021 16.509050 3.368571
472 59 1 12.421921 16.509050 3.368571
473 60 1 11.356821 16.509050 3.368571
474 60 1 10.291721 16.509050 3.368571
475 60 1 9.226621 16.509050 3.368571
476 60 1 8.161521 16.509050 3.368571
477 60 1 7.096421 16.509050 3.368571
478 60 1 6.031321 16.509050 3.368571
479 60 1 4.966221 16.509050 3.368571
480 60 1 3.901121 16.509050 3.368571
481 61 1 3.901121 17.574150 3.368571
482 61 1 4.966221 17.574150 3.368571
483 61 1 6.031321 17.574150 3.368571
484 61 1 7.096421 17.574150 3.368571
485 61 1 8.161521 17.574150 3.368571
486 61 1 9.226621 17.574150 3.368571
487 61 1 10.291721 17.574150 3.368571
488 61 1 11.356821 17.574150 3.368571
489 62 1 12.421921 17.574150 3.368571
490 62 1 13.487021 17.574150 3.368571
491 62 1 14.552121 17.574150 3.368571
492 62 1 15.617221 17.574150 3.368571
493 62 1 16.682321 17.574150 3.368571
494 62 1 17.747421 17.574150 3.368571
495 62 1 18.812521 17.574150 3.368571
496 62 1 19.877621 17.574150 3.368571
497 63 1 20.942721 17.574150 3.368571
498 63 1 22.007821 17.574150 3.368571
499 63 1 23.072921 17.574150 3.368571
500 63 1 24.138021 17.574150 3.368571
501 63 1 25.203121 17.574150 3.368571
502 63 1 26.268221 17.574150 3.368571
503 63 1 27.333321 17.574150 3.368571
504 63 1 28.398421 17.574150 3.368571
505 64 1 29.463521 17.574150 3.368571
506 64 1 30.528621 17.574150 3.368571
507 64 1 31.593721 17.574150 3.368571
508 64 1 32.658821 17.574150 3.368571
509 64 1 33.723921 17.574150 3.368571
510 64 1 34.789021 17.574150 3.368571
511 64 1 34.789021 18.639250 3.368571
512 64 1 33.723921 18.639250 3.368571
513 65 1 32.658821 18.639250 3.368571
514 65 1 31.593721 18.639250 3.368571
515 65 1 30.528621 18.639250 3.368571
516 65 1 29.463521 18.639250 3.368571
517 65 1 28.398421 18.639250 3.368571
518 65 1 27.333321 18.639250 3.368571
519 65 1 26.268221 18.639250 3.368571
520 65 1 25.203121 18.639250 3.368571
521 66 1 24.138021 18.639250 3.368571
522 66 1 23.072921 18.639250 3.368571
523 66 1 22.007821 18.639250 3.368571
524 66 1 20.942721 18.639250 3.368571
525 66 1 19.877621 18.639250 3.368571
526 66 1 18.812521 18.639250 3.368571
527 66 1 17.747421 18.639250 3.368571
528 66 1 16.682321 18.639250 3.368571
529 67 1 15.617221 18.639250 3.368571
530 67 1 14.552121 18.639250 3.368571
531 67 1 13.487021 18.639250 3.368571
532 67 1 12.421921 18.639250 3.368571
533 67 1 11.356821 18.639250 3.368571
534 67 1 10.291721 18.639250 3.368571
535 67 1 9.226621 18.639250 3.368571
536 67 1 8.161521 18.639250 3.368571
537 68 1 7.096421 18.639250 3.368571
538 68 1 6.031321 18.639250 3.368571
539 68 1 4.966221 18.639250 3.368571
540 68 1 3.901121 18.639250 3.368571
541 68 1 3.901121 19.704350 3.368571
542 68 1 4.966221 19.704350 3.368571
543 68 1 6.031321 19.704350 3.368571
544 68 1 7.096421 19.704350 3.368571
545 69 1 8.161521 19.704350 3.368571
546 69 1 9.226621 19.704350 3.368571
547 69 1 10.291721 19.704350 3.368571
548 69 1 11.356821 19.704350 3.368571
549 69 1 12.421921 19.704350 3.368571
550 69 1 13.487021 19.704350 3.368571
551 69 1 14.552121 19.704350 3.368571
552 69 1 15.617221 19.704350 3.368571
553 70 1 16.682321 19.704350 3.368571
554 70 1 17.747421 19.704350 3.368571
555 70 1 18.812521 19.704350 3.368571
556 70 1 19.877621 19.704350 3.368571
557 70 1 20.942721 19.704350 3.368571
558 70 1 22.007821 19.704350 3.368571
559 70 1 23.072921 19.704350 3.368571
560 70 1 24.138021 19.704350 3.368571
561 71 1 25.203121 19.704350 3.368571
562 71 1 26.268221 19.704350 3.368571
563 71 1 27.333321 19.704350 3.368571
564 71 1 28.398421 19.704350 3.368571
565 71 1 29.463521 19.704350 3.368571
566 71 1 30.528621 19.704350 3.368571
567 71 1 31.593721 19.704350 3.368571
568 71 1 32.658821 19.704350 3.368571
569 72 1 33.723921 19.704350 3.368571
570 72 1 34.789021 19.704350 3.368571
571 72 1 34.789021 20.769450 3.368571
572 72 1 33.723921 20.769450 3.368571
573 72 1 32.658821 20.769450 3.368571
574 72 1 31.593721 20.769450 3.368571
575 72 1 30.528621 20.769450 3.368571
576 72 1 29.463521 20.769450 3.368571
577 73 1 28.398421 20.769450 3.368571
578 73 1 27.333321 20.769450 3.368571
579 73 1 26.268221 20.769450 3.368571
580 73 1 25.203121 20.769450 3.368571
581 73 1 24.138021 20.769450 3.368571
582 73 1 23.072921 20.769450 3.368571
583 73 1 22.007821 20.769450 3.368571
584 73 1 20.942721 20.769450 3.368571
585 74 1 19.877621 20.769450 3.368571
586 74 1 18.812521 20.769450 3.368571
587 74 1 17.747421 20.769450 3.368571
588 74 1 16.682321 20.769450 3.368571
589 74 1 15.617221 20.769450 3.368571
590 74 1 14.552121 20.769450 3.368571
591 74 1 13.487021 20.769450 3.368571
592 74 1 12.421921 20.769450 3.368571
593 75 1 11.356821 20.769450 3.368571
594 75 1 10.291721 20.769450 3.368571
595 75 1 9.226621 20.769450 3.368571
596 75 1 8.161521 20.769450 3.368571
597 75 1 7.096421 20.769450 3.368571
598 75 1 6.031321 20.769450 3.368571
599 75 1 4.966221 20.769450 3.368571
600 75 1 3.901121 20.769450 3.368571
601 76 1 3.901121 21.834550 3.368571
602 76 1 4.966221 21.834550 3.368571
603 76 1 6.031321 21.834550 3.368571
604 76 1 7.096421 21.834550 3.368571
605 76 1 8.161521 21.834550 3.368571
606 76 1 9.226621 21.834550 3.368571
607 76 1 10.291721 21.834550 3.368571
608 76 1 11.356821 21.834550 3.368571
609 77 1 12.421921 21.834550 3.368571
610 77 1 13.487021 21.834550 3.368571
611 77 1 14.552121 21.834550 3.368571
612 77 1 15.617221 21.834550 3.368571
613 77 1 16.682321 21.834550 3.368571
614 77 1 17.747421 21.834550 3.368571
615 77 1 18.812521 21.834550 3.368571
616 77 1 19.877621 21.834550 3.368571
617 78 1 20.942721 21.834550 3.368571
618 78 1 22.007821 21.834550 3.368571
619 78 1 23.072921 21.834550 3.368571
620 78 1 24.138021 21.834550 3.368571
621 78 1 25.203121 21.834550 3.368571
622 78 1 26.268221 21.834550 3.368571
623 78 1 27.333321 21.834550 3.368571
624 78 1 28.398421 21.834550 3.368571
625 79 1 29.463521 21.834550 3.368571
626 79 1 30.528621 21.834550 3.368571
627 79 1 31.593721 21.834550 3.368571
628 79 1 32.658821 21.834550 3.368571
629 79 1 33.723921 21.834550 3.368571
630 79 1 34.789021 21.834550 3.368571
631 79 1 34.789021 22.899650 3.368571
632 79 1 33.723921 22.899650 3.368571
633 80 1 32.658821 22.899650 3.368571
634 80 1 31.593721 22.899650 3.368571
635 80 1 30.528621 22.899650 3.368571
636 80 1 29.463521 22.899650 3.368571
637 80 1 28.398421 22.899650 3.368571
638 80 1 27.333321 22.899650 3.368571
639 80 1 26.268221 22.899650 3.368571
640 80 1 25.203121 22.899650 3.368571
641 81 1 24.138021 22.899650 3.368571
642 81 1 23.072921 22.899650 3.368571
643 81 1 22.007821 22.899650 3.368571
644 81 1 20.942721 22.899650 3.368571
645 81 1 19.877621 22.899650 3.368571
646 81 1 18.812521 22.899650 3.368571
647 81 1 17.747421 22.899650 3.368571
648 81 1 16.682321 22.899650 3.368571
649 82 1 15.617221 22.899650 3.368571
650 82 1 14.552121 22.899650 3.368571
651 82 1 13.487021 22.899650 3.368571
652 82 1 12.421921 22.899650 3.368571
653 82 1 11.356821 22.899650 3.368571
654 82 1 10.291721 22.899650 3.368571
655 82 1 9.226621 22.899650 3.368571
656 82 1 8.161521 22.899650 3.368571
657 83 1 7.096421 22.899650 3.368571
658 83 1 6.031321 22.899650 3.368571
659 83 1 4.966221 22.899650 3.368571
660 83 1 3.901121 22.899650 3.368571
661 83 1 3.901121 23.964750 3.368571
662 83 1 4.966221 23.964750 3.368571
663 83 1 6.031321 23.964750 3.368571
664 83 1 7.096421 23.964750 3.368571
665 84 1 8.161521 23.964750 3.368571
666 84 1 9.226621 23.964750 3.368571
667 84 1 10.291721 23.964750 3.368571
668 84 1 11.356821 23.964750 3.368571
669 84 1 12.421921 23.964750 3.368571
670 84 1 13.487021 23.964750 3.368571
671 84 1 14.552121 23.964750 3.368571
672 84 1 15.617221 23.964750 3.368571
673 85 1 16.682321 23.964750 3.368571
674 85 1 17.747421 23.964750 3.368571
675 85 1 18.812521 23.964750 3.368571
676 85 1 19.877621 23.964750 3.368571
677 85 1 20.942721 23.964750 3.368571
678 85 1 22.007821 23.964750 3.368571
679 85 1 23.072921 23.964750 3.368571
680 85 1 24.138021 23.964750 3.368571
681 86 1 25.203121 23.964750 3.368571
682 86 1 26.268221 23.964750 3.368571
683 86 1 27.333321 23.964750 3.368571
684 86 1 28.398421 23.964750 3.368571
685 86 1 29.463521 23.964750 3.368571
686 86 1 30.528621 23.964750 3.368571
687 86 1 31.593721 23.964750 3.368571
688 86 1 32.658821 23.964750 3.368571
689 87 1 33.723921 23.964750 3.368571
690 87 1 34.789021 23.964750 3.368571
691 87 1 34.789021 25.029850 3.368571
692 87 1 33.723921 25.029850 3.368571
693 87 1 32.658821 25.029850 3.368571
694 87 1 31.593721 25.029850 3.368571
695 87 1 30.528621 25.029850 3.368571
696 87 1 29.463521 25.029850 3.368571
697 88 1 28.398421 25.029850 3.368571
698 88 1 27.333321 25.029850 3.368571
699 88 1 26.268221 25.029850 3.368571
700 88 1 25.203121 25.029850 3.368571
701 88 1 24.138021 25.029850 3.368571
702 88 1 23.072921 25.029850 3.368571
703 88 1 22.007821 25.029850 3.368571
704 88 1 20.942721 25.029850 3.368571
705 89 1 19.877621 25.029850 3.368571
706 89 1 18.812521 25.029850 3.368571
707 89 1 17.747421 25.029850 3.368571
708 89 1 16.682321 25.029850 3.368571
709 89 1 15.617221 25.029850 3.368571
710 89 1 14.552121 25.029850 3.368571
711 89 1 13.487021 25.029850 3.368571
712 89 1 12.421921 25.029850 3.368571
713 90 1 11.356821 25.029850 3.368571
714 90 1 10.291721 25.029850 3.368571
715 90 1 9.226621 25.029850 3.368571
716 90 1 8.161521 25.029850 3.368571
717 90 1 7.096421 25.029850 3.368571
718 90 1 6.031321 25.029850 3.368571
719 90 1 4.966221 25.029850 3.368571
720 90 1 3.901121 25.029850 3.368571
721 91 1 3.901121 26.094950 3.368571
722 91 1 4.966221 26.094950 3.368571
723 91 1 6.031321 26.094950 3.368571
724 91 1 7.096421 26.094950 3.368571
725 91 1 8.161521 26.094950 3.368571
726 91 1 9.226621 26.094950 3.368571
727 91 1 10.291721 26.094950 3.368571
728 91 1 11.356821 26.094950 3.368571
729 92 1 12.421921 26.094950 3.368571
730 92 1 13.487021 26.094950 3.368571
731 92 1 14.552121 26.094950 3.368571
732 92 1 15.617221 26.094950 3.368571
733 92 1 16.682321 26.094950 3.368571
734 92 1 17.747421 26.094950 3.368571
735 92 1 18.812521 26.094950 3.368571
736 92 1 19.877621 26.094950 3.368571
737 93 1 20.942721 26.094950 3.368571
738 93 1 22.007821 26.094950 3.368571
739 93 1 23.072921 26.094950 3.368571
740 93 1 24.138021 26.094950 3.368571
741 93 1 25.203121 26.094950 3.368571
742 93 1 26.268221 26.094950 3.368571
743 93 1 27.333321 26.094950 3.368571
744 93 1 28.398421 26.094950 3.368571
745 94 1 29.463521 26.094950 3.368571
746 94 1 30.528621 26.094950 3.368571
747 94 1 31.593721 26.094950 3.368571
748 94 1 32.658821 26.094950 3.368571
749 94 1 33.723921 26.094950 3.368571
750 94 1 34.789021 26.094950 3.368571
751 94 1 34.789021 27.160050 3.368571
752 94 1 33.723921 27.160050 3.368571
753 95 1 32.658821 27.160050 3.368571
754 95 1 31.593721 27.160050 3.368571
755 95 1 30.528621 27.160050 3.368571
756 95 1 29.463521 27.160050 3.368571
757 95 1 28.398421 27.160050 3.368571
758 95 1 27.333321 27.160050 3.368571
759 95 1 26.268221 27.160050 3.368571
760 95 1 25.203121 27.160050 3.368571
761 96 1 24.138021 27.160050 3.368571
762 96 1 23.072921 27.160050 3.368571
763 96 1 22.007821 27.160050 3.368571
764 96 1 20.942721 27.160050 3.368571
765 96 1 19.877621 27.160050 3.368571
766 96 1 18.812521 27.160050 3.368571
767 96 1 17.747421 27.160050 3.368571
768 96 1 16.682321 27.160050 3.368571
769 97 1 15.617221 27.160050 3.368571
770 97 1 14.552121 27.160050 3.368571
771 97 1 13.487021 27.160050 3.368571
772 97 1 12.421921 27.160050 3.368571
773 97 1 11.356821 27.160050 3.368571
774 97 1 10.291721 27.160050 3.368571
775 97 1 9.226621 27.160050 3.368571
776 97 1 8.161521 27.160050 3.368571
777 98 1 7.096421 27.160050 3.368571
778 98 1 6.031321 27.160050 3.368571
779 98 1 4.966221 27.160050 3.368571
780 98 1 3.901121 27.160050 3.368571
781 98 1 3.901121 28.225150 3.368571
782 98 1 4.966221 28.225150 3.368571
783 98 1 6.031321 28.225150 3.368571
784 98 1 7.096421 28.225150 3.368571
785 99 1 8.161521 28.225150 3.368571
786 99 1 9.226621 28.225150 3.368571
787 99 1 10.291721 28.225150 3.368571
788 99 1 11.356821 28.225150 3.368571
789 99 1 12.421921 28.225150 3.368571
790 99 1 13.487021 28.225150 3.368571
791 99 1 14.552121 28.225150 3.368571
792 99 1 15.617221 28.225150 3.368571
793 100 1 16.682321 28.225150 3.368571
794 100 1 17.747421 28.225150 3.368571
795 100 1 18.812521 28.225150 3.368571
796 100 1 19.877621 28.225150 3.368571
797 100 1 20.942721 28.225150 3.368571
798 100 1 22.007821 28.225150 3.368571
799 100 1 23.072921 28.225150 3.368571