LAMMPS data file for test.MD

48840 atoms
42735 bonds
0 angles
0 dihedrals
0 impropers

1 atom types
1 bond types
0 angle types
0 dihedral types
0 improper types

0.0 687.75 xlo xhi
0.0 121.83 ylo yhi
0.0 110.04 zlo zhi

Atoms

1 1 1 250.000000 0.000000 11.790000
2 1 1 253.930000 0.000000 11.790000
3 1 1 257.860000 0.000000 11.790000
4 1 1 261.790000 0.000000 11.790000
5 1 1 265.720000 0.000000 11.790000
6 1 1 269.650000 0.000000 11.790000
7 1 1 273.580000 0.000000 11.790000
8 1 1 277.510000 0.000000 11.790000
9 2 1 281.440000 0.000000 11.790000
10 2 1 285.370000 0.000000 11.790000
11 2 1 289.300000 0.000000 11.790000
12 2 1 293.230000 0.000000 11.790000
13 2 1 297.160000 0.000000 11.790000
14 2 1 301.090000 0.000000 11.790000
15 2 1 305.020000 0.000000 11.790000
16 2 1 308.950000 0.000000 11.790000
17 3 1 312.880000 0.000000 11.790000
18 3 1 316.810000 0.000000 11.790000
19 3 1 320.740000 0.000000 11.790000
20 3 1 324.670000 0.000000 11.790000
21 3 1 328.600000 0.000000 11.790000
22 3 1 332.530000 0.000000 11.790000
23 3 1 336.460000 0.000000 11.790000
24 3 1 340.390000 0.000000 11.790000
25 4 1 344.320000 0.000000 11.790000
26 4 1 348.250000 0.000000 11.790000
27 4 1 352.180000 0.000000 11.790000
28 4 1 356.110000 0.000000 11.790000
29 4 1 360.040000 0.000000 11.790000
30 4 1 363.970000 0.000000 11.790000
31 4 1 367.900000 0.000000 11.790000
32 4 1 371.830000 0.000000 11.790000
33 5 1 375.760000 0.000000 11.790000
34 5 1 379.690000 0.000000 11.790000
35 5 1 383.620000 0.000000 11.790000
36 5 1 387.550000 0.000000 11.790000
37 5 1 391.480000 0.000000 11.790000
38 5 1 395.410000 0.000000 11.790000
39 5 1 399.340000 0.000000 11.790000
40 5 1 403.270000 0.000000 11.790000
41 6 1 250.000000 3.275000 11.790000
42 6 1 253.930000 3.275000 11.790000
43 6 1 257.860000 3.275000 11.790000
44 6 1 261.790000 3.275000 11.790000
45 6 1 265.720000 3.275000 11.790000
46 6 1 269.650000 3.275000 11.790000
47 6 1 273.580000 3.275000 11.790000
48 6 1 277.510000 3.275000 11.790000
49 7 1 281.440000 3.275000 11.790000
50 7 1 285.370000 3.275000 11.790000
51 7 1 289.300000 3.275000 11.790000
52 7 1 293.230000 3.275000 11.790000
53 7 1 297.160000 3.275000 11.790000
54 7 1 301.090000 3.275000 11.790000
55 7 1 305.020000 3.275000 11.790000
56 7 1 308.950000 3.275000 11.790000
57 8 1 312.880000 3.275000 11.790000
58 8 1 316.810000 3.275000 11.790000
59 8 1 320.740000 3.275000 11.790000
60 8 1 324.670000 3.275000 11.790000
61 8 1 328.600000 3.275000 11.790000
62 8 1 332.530000 3.275000 11.790000
63 8 1 336.460000 3.275000 11.790000
64 8 1 340.390000 3.275000 11.790000
65 9 1 344.320000 3.275000 11.790000
66 9 1 348.250000 3.275000 11.790000
67 9 1 352.180000 3.275000 11.790000
68 9 1 356.110000 3.275000 11.790000
69 9 1 360.040000 3.275000 11.790000
70 9 1 363.970000 3.275000 11.790000
71 9 1 367.900000 3.275000 11.790000
72 9 1 371.830000 3.275000 11.790000
73 10 1 375.760000 3.275000 11.790000
74 10 1 379.690000 3.275000 11.790000
75 10 1 383.620000 3.275000 11.790000
76 10 1 387.550000 3.275000 11.790000
77 10 1 391.480000 3.275000 11.790000
78 10 1 395.410000 3.275000 11.790000
79 10 1 399.340000 3.275000 11.790000
80 10 1 403.270000 3.275000 11.790000
81 11 1 250.000000 6.550000 11.790000
82 11 1 253.930000 6.550000 11.790000
83 11 1 257.860000 6.550000 11.790000
84 11 1 261.790000 6.550000 11.790000
85 11 1 265.720000 6.550000 11.790000
86 11 1 269.650000 6.550000 11.790000
87 11 1 273.580000 6.550000 11.790000
88 11 1 277.510000 6.550000 11.790000
89 12 1 281.440000 6.550000 11.790000
90 12 1 285.370000 6.550000 11.790000
91 12 1 289.300000 6.550000 11.790000
92 12 1 293.230000 6.550000 11.790000
93 12 1 297.160000 6.550000 11.790000
94 12 1 301.090000 6.550000 11.790000
95 12 1 305.020000 6.550000 11.790000
96 12 1 308.950000 6.550000 11.790000
97 13 1 312.880000 6.550000 11.790000
98 13 1 316.810000 6.550000 11.790000
99 13 1 320.740000 6.550000 11.790000
100 13 1 324.670000 6.550000 11.790000
101 13 1 328.600000 6.550000 11.790000
102 13 1 332.530000 6.550000 11.790000
103 13 1 336.460000 6.550000 11.790000
104 13 1 340.390000 6.550000 11.790000
105 14 1 344.320000 6.550000 11.790000
106 14 1 348.250000 6.550000 11.790000
107 14 1 352.180000 6.550000 11.790000
108 14 1 356.110000 6.550000 11.790000
109 14 1 360.040000 6.550000 11.790000
110 14 1 363.970000 6.550000 11.790000
111 14 1 367.900000 6.550000 11.790000
112 14 1 371.830000 6.550000 11.790000
113 15 1 375.760000 6.550000 11.790000
114 15 1 379.690000 6.550000 11.790000
115 15 1 383.620000 6.550000 11.790000
116 15 1 387.550000 6.550000 11.790000
117 15 1 391.480000 6.550000 11.790000
118 15 1 395.410000 6.550000 11.790000
119 15 1 399.340000 6.550000 11.790000
120 15 1 403.270000 6.550000 11.790000
121 16 1 250.000000 9.825000 11.790000
122 16 1 253.930000 9.825000 11.790000
123 16 1 257.860000 9.825000 11.790000
124 16 1 261.790000 9.825000 11.790000
125 16 1 265.720000 9.825000 11.790000
126 16 1 269.650000 9.825000 11.790000
127 16 1 273.580000 9.825000 11.790000
128 16 1 277.510000 9.825000 11.790000
129 17 1 281.440000 9.825000 11.790000
130 17 1 285.370000 9.825000 11.790000
131 17 1 289.300000 9.825000 11.790000
132 17 1 293.230000 9.825000 11.790000
133 17 1 297.160000 9.825000 11.790000
134 17 1 301.090000 9.825000 11.790000
135 17 1 305.020000 9.825000 11.790000
136 17 1 308.950000 9.825000 11.790000
137 18 1 312.880000 9.825000 11.790000
138 18 1 316.810000 9.825000 11.790000
139 18 1 320.740000 9.825000 11.790000
140 18 1 324.670000 9.825000 11.790000
141 18 1 328.600000 9.825000 11.790000
142 18 1 332.530000 9.825000 11.790000
143 18 1 336.460000 9.825000 11.790000
144 18 1 340.390000 9.825000 11.790000
145 19 1 344.320000 9.825000 11.790000
146 19 1 348.250000 9.825000 11.790000
147 19 1 352.180000 9.825000 11.790000
148 19 1 356.110000 9.825000 11.790000
149 19 1 360.040000 9.825000 11.790000
150 19 1 363.970000 9.825000 11.790000
151 19 1 367.900000 9.825000 11.790000
152 19 1 371.830000 9.825000 11.790000
153 20 1 375.760000 9.825000 11.790000
154 20 1 379.690000 9.825000 11.790000
155 20 1 383.620000 9.825000 11.790000
156 20 1 387.550000 9.825000 11.790000
157 20 1 391.480000 9.825000 11.790000
158 20 1 395.410000 9.825000 11.790000
159 20 1 399.340000 9.825000 11.790000
160 20 1 403.270000 9.825000 11.790000
161 21 1 250.000000 13.100000 11.790000
162 21 1 253.930000 13.100000 11.790000
163 21 1 257.860000 13.100000 11.790000
164 21 1 261.790000 13.100000 11.790000
165 21 1 265.720000 13.100000 11.790000
166 21 1 269.650000 13.100000 11.790000
167 21 1 273.580000 13.100000 11.790000
168 21 1 277.510000 13.100000 11.790000
169 22 1 281.440000 13.100000 11.790000
170 22 1 285.370000 13.100000 11.790000
171 22 1 289.300000 13.100000 11.790000
172 22 1 293.230000 13.100000 11.790000
173 22 1 297.160000 13.100000 11.790000
174 22 1 301.090000 13.100000 11.790000
175 22 1 305.020000 13.100000 11.790000
176 22 1 308.950000 13.100000 11.790000
177 23 1 312.880000 13.100000 11.790000
178 23 1 316.810000 13.100000 11.790000
179 23 1 320.740000 13.100000 11.790000
180 23 1 324.670000 13.100000 11.790000
181 23 1 328.600000 13.100000 11.790000
182 23 1 332.530000 13.100000 11.790000
183 23 1 336.460000 13.100000 11.790000
184 23 1 340.390000 13.100000 11.790000
185 24 1 344.320000 13.100000 11.790000
186 24 1 348.250000 13.100000 11.790000
187 24 1 352.180000 13.100000 11.790000
188 24 1 356.110000 13.100000 11.790000
189 24 1 360.040000 13.100000 11.790000
190 24 1 363.970000 13.100000 11.790000
191 24 1 367.900000 13.100000 11.790000
192 24 1 371.830000 13.100000 11.790000
193 25 1 375.760000 13.100000 11.790000
194 25 1 379.690000 13.100000 11.790000
195 25 1 383.620000 13.100000 11.790000
196 25 1 387.550000 13.100000 11.790000
197 25 1 391.480000 13.100000 11.790000
198 25 1 395.410000 13.100000 11.790000
199 25 1 399.340000 13.100000 11.790000
200 25 1 403.270000 13.100000 11.790000
201 26 1 250.000000 16.375000 11.790000
202 26 1 253.930000 16.375000 11.790000
203 26 1 257.860000 16.375000 11.790000
204 26 1 261.790000 16.375000 11.790000
205 26 1 265.720000 16.375000 11.790000
206 26 1 269.650000 16.375000 11.790000
207 26 1 273.580000 16.375000 11.790000
208 26 1 277.510000 16.375000 11.790000
209 27 1 281.440000 16.375000 11.790000
210 27 1 285.370000 16.375000 11.790000
211 27 1 289.300000 16.375000 11.790000
212 27 1 293.230000 16.375000 11.790000
213 27 1 297.160000 16.375000 11.790000
214 27 1 301.090000 16.375000 11.790000
215 27 1 305.020000 16.375000 11.790000
216 27 1 308.950000 16.375000 11.790000
217 28 1 312.880000 16.375000 11.790000
218 28 1 316.810000 16.375000 11.790000
219 28 1 320.740000 16.375000 11.790000
220 28 1 324.670000 16.375000 11.790000
221 28 1 328.600000 16.375000 11.790000
222 28 1 332.530000 16.375000 11.790000
223 28 1 336.460000 16.375000 11.790000
224 28 1 340.390000 16.375000 11.790000
225 29 1 344.320000 16.375000 11.790000
226 29 1 348.250000 16.375000 11.790000
227 29 1 352.180000 16.375000 11.790000
228 29 1 356.110000 16.375000 11.790000
229 29 1 360.040000 16.375000 11.790000
230 29 1 363.970000 16.375000 11.790000
231 29 1 367.900000 16.375000 11.790000
232 29 1 371.830000 16.375000 11.790000
233 30 1 375.760000 16.375000 11.790000
234 30 1 379.690000 16.375000 11.790000
235 30 1 383.620000 16.375000 11.790000
236 30 1 387.550000 16.375000 11.790000
237 30 1 391.480000 16.375000 11.790000
238 30 1 395.410000 16.375000 11.790000
239 30 1 399.340000 16.375000 11.790000
240 30 1 403.270000 16.375000 11.790000
241 31 1 250.000000 19.650000 11.790000
242 31 1 253.930000 19.650000 11.790000
243 31 1 257.860000 19.650000 11.790000
244 31 1 261.790000 19.650000 11.790000
245 31 1 265.720000 19.650000 11.790000
246 31 1 269.650000 19.650000 11.790000
247 31 1 273.580000 19.650000 11.790000
248 31 1 277.510000 19.650000 11.790000
249 32 1 281.440000 19.650000 11.790000
250 32 1 285.370000 19.650000 11.790000
251 32 1 289.300000 19.650000 11.790000
252 32 1 293.230000 19.650000 11.790000
253 32 1 297.160000 19.650000 11.790000
254 32 1 301.090000 19.650000 11.790000
255 32 1 305.020000 19.650000 11.790000
256 32 1 308.950000 19.650000 11.790000
257 33 1 312.880000 19.650000 11.790000
258 33 1 316.810000 19.650000 11.790000
259 33 1 320.740000 19.650000 11.790000
260 33 1 324.670000 19.650000 11.790000
261 33 1 328.600000 19.650000 11.790000
262 33 1 332.530000 19.650000 11.790000
263 33 1 336.460000 19.650000 11.790000
264 33 1 340.390000 19.650000 11.790000
265 34 1 344.320000 19.650000 11.790000
266 34 1 348.250000 19.650000 11.790000
267 34 1 352.180000 19.650000 11.790000
268 34 1 356.110000 19.650000 11.790000
269 34 1 360.040000 19.650000 11.790000
270 34 1 363.970000 19.650000 11.790000
271 34 1 367.900000 19.650000 11.790000
272 34 1 371.830000 19.650000 11.790000
273 35 1 375.760000 19.650000 11.790000
274 35 1 379.690000 19.650000 11.790000
275 35 1 383.620000 19.650000 11.790000
276 35 1 387.550000 19.650000 11.790000
277 35 1 391.480000 19.650000 11.790000
278 35 1 395.410000 19.650000 11.790000
279 35 1 399.340000 19.650000 11.790000
280 35 1 403.270000 19.650000 11.790000
281 36 1 250.000000 22.925000 11.790000
282 36 1 253.930000 22.925000 11.790000
283 36 1 257.860000 22.925000 11.790000
284 36 1 261.790000 22.925000 11.790000
285 36 1 265.720000 22.925000 11.790000
286 36 1 269.650000 22.925000 11.790000
287 36 1 273.580000 22.925000 11.790000
288 36 1 277.510000 22.925000 11.790000
289 37 1 281.440000 22.925000 11.790000
290 37 1 285.370000 22.925000 11.790000
291 37 1 289.300000 22.925000 11.790000
292 37 1 293.230000 22.925000 11.790000
293 37 1 297.160000 22.925000 11.790000
294 37 1 301.090000 22.925000 11.790000
295 37 1 305.020000 22.925000 11.790000
296 37 1 308.950000 22.925000 11.790000
297 38 1 312.880000 22.925000 11.790000
298 38 1 316.810000 22.925000 11.790000
299 38 1 320.740000 22.925000 11.790000
300 38 1 324.670000 22.925000 11.790000
301 38 1 328.600000 22.925000 11.790000
302 38 1 332.530000 22.925000 11.790000
303 38 1 336.460000 22.925000 11.790000
304 38 1 340.390000 22.925000 11.790000
305 39 1 344.320000 22.925000 11.790000
306 39 1 348.250000 22.925000 11.790000
307 39 1 352.180000 22.925000 11.790000
308 39 1 356.110000 22.925000 11.790000
309 39 1 360.040000 22.925000 11.790000
310 39 1 363.970000 22.925000 11.790000
311 39 1 367.900000 22.925000 11.790000
312 39 1 371.830000 22.925000 11.790000
313 40 1 375.760000 22.925000 11.790000
314 40 1 379.690000 22.925000 11.790000
315 40 1 383.620000 22.925000 11.790000
316 40 1 387.550000 22.925000 11.790000
317 40 1 391.480000 22.925000 11.790000
318 40 1 395.410000 22.925000 11.790000
319 40 1 399.340000 22.925000 11.790000
320 40 1 403.270000 22.925000 11.790000
321 41 1 250.000000 26.200000 11.790000
322 41 1 253.930000 26.200000 11.790000
323 41 1 257.860000 26.200000 11.790000
324 41 1 261.790000 26.200000 11.790000
325 41 1 265.720000 26.200000 11.790000
326 41 1 269.650000 26.200000 11.790000
327 41 1 273.580000 26.200000 11.790000
328 41 1 277.510000 26.200000 11.790000
329 42 1 281.440000 26.200000 11.790000
330 42 1 285.370000 26.200000 11.790000
331 42 1 289.300000 26.200000 11.790000
332 42 1 293.230000 26.200000 11.790000
333 42 1 297.160000 26.200000 11.790000
334 42 1 301.090000 26.200000 11.790000
335 42 1 305.020000 26.200000 11.790000
336 42 1 308.950000 26.200000 11.790000
337 43 1 312.880000 26.200000 11.790000
338 43 1 316.810000 26.200000 11.790000
339 43 1 320.740000 26.200000 11.790000
340 43 1 324.670000 26.200000 11.790000
341 43 1 328.600000 26.200000 11.790000
342 43 1 332.530000 26.200000 11.790000
343 43 1 336.460000 26.200000 11.790000
344 43 1 340.390000 26.200000 11.790000
345 44 1 344.320000 26.200000 11.790000
346 44 1 348.250000 26.200000 11.790000
347 44 1 352.180000 26.200000 11.790000
348 44 1 356.110000 26.200000 11.790000
349 44 1 360.040000 26.200000 11.790000
350 44 1 363.970000 26.200000 11.790000
351 44 1 367.900000 26.200000 11.790000
352 44 1 371.830000 26.200000 11.790000
353 45 1 375.760000 26.200000 11.790000
354 45 1 379.690000 26.200000 11.790000
355 45 1 383.620000 26.200000 11.790000
356 45 1 387.550000 26.200000 11.790000
357 45 1 391.480000 26.200000 11.790000
358 45 1 395.410000 26.200000 11.790000
359 45 1 399.340000 26.200000 11.790000
360 45 1 403.270000 26.200000 11.790000
361 46 1 250.000000 29.475000 11.790000
362 46 1 253.930000 29.475000 11.790000
363 46 1 257.860000 29.475000 11.790000
364 46 1 261.790000 29.475000 11.790000
365 46 1 265.720000 29.475000 11.790000
366 46 1 269.650000 29.475000 11.790000
367 46 1 273.580000 29.475000 11.790000
368 46 1 277.510000 29.475000 11.790000
369 47 1 281.440000 29.475000 11.790000
370 47 1 285.370000 29.475000 11.790000
371 47 1 289.300000 29.475000 11.790000
372 47 1 293.230000 29.475000 11.790000
373 47 1 297.160000 29.475000 11.790000
374 47 1 301.090000 29.475000 11.790000
375 47 1 305.020000 29.475000 11.790000
376 47 1 308.950000 29.475000 11.790000
377 48 1 312.880000 29.475000 11.790000
378 48 1 316.810000 29.475000 11.790000
379 48 1 320.740000 29.475000 11.790000
380 48 1 324.670000 29.475000 11.790000
381 48 1 328.600000 29.475000 11.790000
382 48 1 332.530000 29.475000 11.790000
383 48 1 336.460000 29.475000 11.790000
384 48 1 340.390000 29.475000 11.790000
385 49 1 344.320000 29.475000 11.790000
386 49 1 348.250000 29.475000 11.790000
387 49 1 352.180000 29.475000 11.790000
388 49 1 356.110000 29.475000 11.790000
389 49 1 360.040000 29.475000 11.790000
390 49 1 363.970000 29.475000 11.790000
391 49 1 367.900000 29.475000 11.790000
392 49 1 371.830000 29.475000 11.790000
393 50 1 375.760000 29.475000 11.790000
394 50 1 379.690000 29.475000 11.790000
395 50 1 383.620000 29.475000 11.790000
396 50 1 387.550000 29.475000 11.790000
397 50 1 391.480000 29.475000 11.790000
398 50 1 395.410000 29.475000 11.790000
399 50 1 399.340000 29.475000 11.790000
400 50 1 403.270000 29.475000 11.790000
401 51 1 250.000000 32.750000 11.790000
402 51 1 253.930000 32.750000 11.790000
403 51 1 257.860000 32.750000 11.790000
404 51 1 261.790000 32.750000 11.790000
405 51 1 265.720000 32.750000 11.790000
406 51 1 269.650000 32.750000 11.790000
407 51 1 273.580000 32.750000 11.790000
408 51 1 277.510000 32.750000 11.790000
409 52 1 281.440000 32.750000 11.790000
410 52 1 285.370000 32.750000 11.790000
411 52 1 289.300000 32.750000 11.790000
412 52 1 293.230000 32.750000 11.790000
413 52 1 297.160000 32.750000 11.790000
414 52 1 301.090000 32.750000 11.790000
415 52 1 305.020000 32.750000 11.790000
416 52 1 308.950000 32.750000 11.790000
417 53 1 312.880000 32.750000 11.790000
418 53 1 316.810000 32.750000 11.790000
419 53 1 320.740000 32.750000 11.790000
420 53 1 324.670000 32.750000 11.790000
421 53 1 328.600000 32.750000 11.790000
422 53 1 332.530000 32.750000 11.790000
423 53 1 336.460000 32.750000 11.790000
424 53 1 340.390000 32.750000 11.790000
425 54 1 344.320000 32.750000 11.790000
426 54 1 348.250000 32.750000 11.790000
427 54 1 352.180000 32.750000 11.790000
428 54 1 356.110000 32.750000 11.790000
429 54 1 360.040000 32.750000 11.790000
430 54 1 363.970000 32.750000 11.790000
431 54 1 367.900000 32.750000 11.790000
432 54 1 371.830000 32.750000 11.790000
433 55 1 375.760000 32.750000 11.790000
434 55 1 379.690000 32.750000 11.790000
435 55 1 383.620000 32.750000 11.790000
436 55 1 387.550000 32.750000 11.790000
437 55 1 391.480000 32.750000 11.790000
438 55 1 395.410000 32.750000 11.790000
439 55 1 399.340000 32.750000 11.790000
440 55 1 403.270000 32.750000 11.790000
441 56 1 250.000000 36.025000 11.790000
442 56 1 253.930000 36.025000 11.790000
443 56 1 257.860000 36.025000 11.790000
444 56 1 261.790000 36.025000 11.790000
445 56 1 265.720000 36.025000 11.790000
446 56 1 269.650000 36.025000 11.790000
447 56 1 273.580000 36.025000 11.790000
448 56 1 277.510000 36.025000 11.790000
449 57 1 281.440000 36.025000 11.790000
450 57 1 285.370000 36.025000 11.790000
451 57 1 289.300000 36.025000 11.790000
452 57 1 293.230000 36.025000 11.790000
453 57 1 297.160000 36.025000 11.790000
454 57 1 301.090000 36.025000 11.790000
455 57 1 305.020000 36.025000 11.790000
456 57 1 308.950000 36.025000 11.790000
457 58 1 312.880000 36.025000 11.790000
458 58 1 316.810000 36.025000 11.790000
459 58 1 320.740000 36.025000 11.790000
460 58 1 324.670000 36.025000 11.790000
461 58 1 328.600000 36.025000 11.790000
462 58 1 332.530000 36.025000 11.790000
463 58 1 336.460000 36.025000 11.790000
464 58 1 340.390000 36.025000 11.790000
465 59 1 344.320000 36.025000 11.790000
466 59 1 348.250000 36.025000 11.790000
467 59 1 352.180000 36.025000 11.790000
468 59 1 356.110000 36.025000 11.790000
469 59 1 360.040000 36.025000 11.790000
470 59 1 363.970000 36.025000 11.790000
471 59 1 367.900000 36.025000 11.790000
472 59 1 371.830000 36.025000 11.790000
473 60 1 375.760000 36.025000 11.790000
474 60 1 379.690000 36.025000 11.790000
475 60 1 383.620000 36.025000 11.790000
476 60 1 387.550000 36.025000 11.790000
477 60 1 391.480000 36.025000 11.790000
478 60 1 395.410000 36.025000 11.790000
479 60 1 399.340000 36.025000 11.790000
480 60 1 403.270000 36.025000 11.790000
481 61 1 250.000000 39.300000 11.790000
482 61 1 253.930000 39.300000 11.790000
483 61 1 257.860000 39.300000 11.790000
484 61 1 261.790000 39.300000 11.790000
485 61 1 265.720000 39.300000 11.790000
486 61 1 269.650000 39.300000 11.790000
487 61 1 273.580000 39.300000 11.790000
488 61 1 277.510000 39.300000 11.790000
489 62 1 281.440000 39.300000 11.790000
490 62 1 285.370000 39.300000 11.790000
491 62 1 289.300000 39.300000 11.790000
492 62 1 293.230000 39.300000 11.790000
493 62 1 297.160000 39.300000 11.790000
494 62 1 301.090000 39.300000 11.790000
495 62 1 305.020000 39.300000 11.790000
496 62 1 308.950000 39.300000 11.790000
497 63 1 312.880000 39.300000 11.790000
498 63 1 316.810000 39.300000 11.790000
499 63 1 320.740000 39.300000 11.790000
500 63 1 324.670000 39.300000 11.790000
501 63 1 328.600000 39.300000 11.790000
502 63 1 332.530000 39.300000 11.790000
503 63 1 336.460000 39.300000 11.790000
504 63 1 340.390000 39.300000 11.790000
505 64 1 344.320000 39.300000 11.790000
506 64 1 348.250000 39.300000 11.790000
507 64 1 352.180000 39.300000 11.790000
508 64 1 356.110000 39.300000 11.790000
509 64 1 360.040000 39.300000 11.790000
510 64 1 363.970000 39.300000 11.790000
511 64 1 367.900000 39.300000 11.790000
512 64 1 371.830000 39.300000 11.790000
513 65 1 375.760000 39.300000 11.790000
514 65 1 379.690000 39.300000 11.790000
515 65 1 383.620000 39.300000 11.790000
516 65 1 387.550000 39.300000 11.790000
517 65 1 391.480000 39.300000 11.790000
518 65 1 395.410000 39.300000 11.790000
519 65 1 399.340000 39.300000 11.790000
520 65 1 403.270000 39.300000 11.790000
521 66 1 250.000000 42.575000 11.790000
522 66 1 253.930000 42.575000 11.790000
523 66 1 257.860000 42.575000 11.790000
524 66 1 261.790000 42.575000 11.790000
525 66 1 265.720000 42.575000 11.790000
526 66 1 269.650000 42.575000 11.790000
527 66 1 273.580000 42.575000 11.790000
528 66 1 277.510000 42.575000 11.790000
529 67 1 281.440000 42.575000 11.790000
530 67 1 285.370000 42.575000 11.790000
531 67 1 289.300000 42.575000 11.790000
532 67 1 293.230000 42.575000 11.790000
533 67 1 297.160000 42.575000 11.790000
534 67 1 301.090000 42.575000 11.790000
535 67 1 305.020000 42.575000 11.790000
536 67 1 308.950000 42.575000 11.790000
537 68 1 312.880000 42.575000 11.790000
538 68 1 316.810000 42.575000 11.790000
539 68 1 320.740000 42.575000 11.790000
540 68 1 324.670000 42.575000 11.790000
541 68 1 328.600000 42.575000 11.790000
542 68 1 332.530000 42.575000 11.790000
543 68 1 336.460000 42.575000 11.790000
544 68 1 340.390000 42.575000 11.790000
545 69 1 344.320000 42.575000 11.790000
546 69 1 348.250000 42.575000 11.790000
547 69 1 352.180000 42.575000 11.790000
548 69 1 356.110000 42.575000 11.790000
549 69 1 360.040000 42.575000 11.790000
550 69 1 363.970000 42.575000 11.790000
551 69 1 367.900000 42.575000 11.790000
552 69 1 371.830000 42.575000 11.790000
553 70 1 375.760000 42.575000 11.790000
554 70 1 379.690000 42.575000 11.790000
555 70 1 383.620000 42.575000 11.790000
556 70 1 387.550000 42.575000 11.790000
557 70 1 391.480000 42.575000 11.790000
558 70 1 395.410000 42.575000 11.790000
559 70 1 399.340000 42.575000 11.790000
560 70 1 403.270000 42.575000 11.790000
561 71 1 250.000000 45.850000 11.790000
562 71 1 253.930000 45.850000 11.790000
563 71 1 257.860000 45.850000 11.790000
564 71 1 261.790000 45.850000 11.790000
565 71 1 265.720000 45.850000 11.790000
566 71 1 269.650000 45.850000 11.790000
567 71 1 273.580000 45.850000 11.790000
568 71 1 277.510000 45.850000 11.790000
569 72 1 281.440000 45.850000 11.790000
570 72 1 285.370000 45.850000 11.790000
571 72 1 289.300000 45.850000 11.790000
572 72 1 293.230000 45.850000 11.790000
573 72 1 297.160000 45.850000 11.790000
574 72 1 301.090000 45.850000 11.790000
575 72 1 305.020000 45.850000 11.790000
576 72 1 308.950000 45.850000 11.790000
577 73 1 312.880000 45.850000 11.790000
578 73 1 316.810000 45.850000 11.790000
579 73 1 320.740000 45.850000 11.790000
580 73 1 324.670000 45.850000 11.790000
581 73 1 328.600000 45.850000 11.790000
582 73 1 332.530000 45.850000 11.790000
583 73 1 336.460000 45.850000 11.790000
584 73 1 340.390000 45.850000 11.790000
585 74 1 344.320000 45.850000 11.790000
586 74 1 348.250000 45.850000 11.790000
587 74 1 352.180000 45.850000 11.790000
588 74 1 356.110000 45.850000 11.790000
589 74 1 360.040000 45.850000 11.790000
590 74 1 363.970000 45.850000 11.790000
591 74 1 367.900000 45.850000 11.790000
592 74 1 371.830000 45.850000 11.790000
593 75 1 375.760000 45.850000 11.790000
594 75 1 379.690000 45.850000 11.790000
595 75 1 383.620000 45.850000 11.790000
596 75 1 387.550000 45.850000 11.790000
597 75 1 391.480000 45.850000 11.790000
598 75 1 395.410000 45.850000 11.790000
599 75 1 399.340000 45.850000 11.790000
600 75 1 403.270000 45.850000 11.790000
601 76 1 250.000000 49.125000 11.790000
602 76 1 253.930000 49.125000 11.790000
603 76 1 257.860000 49.125000 11.790000
604 76 1 261.790000 49.125000 11.790000
605 76 1 265.720000 49.125000 11.790000
606 76 1 269.650000 49.125000 11.790000
607 76 1 273.580000 49.125000 11.790000
608 76 1 277.510000 49.125000 11.790000
609 77 1 281.440000 49.125000 11.790000
610 77 1 285.370000 49.125000 11.790000
611 77 1 289.300000 49.125000 11.790000
612 77 1 293.230000 49.125000 11.790000
613 77 1 297.160000 49.125000 11.790000
614 77 1 301.090000 49.125000 11.790000
615 77 1 305.020000 49.125000 11.790000
616 77 1 308.950000 49.125000 11.790000
617 78 1 312.880000 49.125000 11.790000
618 78 1 316.810000 49.125000 11.790000
619 78 1 320.740000 49.125000 11.790000
620 78 1 324.670000 49.125000 11.790000
621 78 1 328.600000 49.125000 11.790000
622 78 1 332.530000 49.125000 11.790000
623 78 1 336.460000 49.125000 11.790000
624 78 1 340.390000 49.125000 11.790000
625 79 1 344.320000 49.125000 11.790000
626 79 1 348.250000 49.125000 11.790000
627 79 1 352.180000 49.125000 11.790000
628 79 1 356.110000 49.125000 11.790000
629 79 1 360.040000 49.125000 11.790000
630 79 1 363.970000 49.125000 11.790000
631 79 1 367.900000 49.125000 11.790000
632 79 1 371.830000 49.125000 11.790000
633 80 1 375.760000 49.125000 11.790000
634 80 1 379.690000 49.125000 11.790000
635 80 1 383.620000 49.125000 11.790000
636 80 1 387.550000 49.125000 11.790000
637 80 1 391.480000 49.125000 11.790000
638 80 1 395.410000 49.125000 11.790000
639 80 1 399.340000 49.125000 11.790000
640 80 1 403.270000 49.125000 11.790000
641 81 1 250.000000 52.400000 11.790000
642 81 1 253.930000 52.400000 11.790000
643 81 1 257.860000 52.400000 11.790000
644 81 1 261.790000 52.400000 11.790000
645 81 1 265.720000 52.400000 11.790000
646 81 1 269.650000 52.400000 11.790000
647 81 1 273.580000 52.400000 11.790000
648 81 1 277.510000 52.400000 11.790000
649 82 1 281.440000 52.400000 11.790000
650 82 1 285.370000 52.400000 11.790000
651 82 1 289.300000 52.400000 11.790000
652 82 1 293.230000 52.400000 11.790000
653 82 1 297.160000 52.400000 11.790000
654 82 1 301.090000 52.400000 11.790000
655 82 1 305.020000 52.400000 11.790000
656 82 1 308.950000 52.400000 11.790000
657 83 1 312.880000 52.400000 11.790000
658 83 1 316.810000 52.400000 11.790000
659 83 1 320.740000 52.400000 11.790000
660 83 1 324.670000 52.400000 11.790000
661 83 1 328.600000 52.400000 11.790000
662 83 1 332.530000 52.400000 11.790000
663 83 1 336.460000 52.400000 11.790000
664 83 1 340.390000 52.400000 11.790000
665 84 1 344.320000 52.400000 11.790000
666 84 1 348.250000 52.400000 11.790000
667 84 1 352.180000 52.400000 11.790000
668 84 1 356.110000 52.400000 11.790000
669 84 1 360.040000 52.400000 11.790000
670 84 1 363.970000 52.400000 11.790000
671 84 1 367.900000 52.400000 11.790000
672 84 1 371.830000 52.400000 11.790000
673 85 1 375.760000 52.400000 11.790000
674 85 1 379.690000 52.400000 11.790000
675 85 1 383.620000 52.400000 11.790000
676 85 1 387.550000 52.400000 11.790000
677 85 1 391.480000 52.400000 11.790000
678 85 1 395.410000 52.400000 11.790000
679 85 1 399.340000 52.400000 11.790000
680 85 1 403.270000 52.400000 11.790000
681 86 1 250.000000 55.675000 11.790000
682 86 1 253.930000 55.675000 11.790000
683 86 1 257.860000 55.675000 11.790000
684 86 1 261.790000 55.675000 11.790000
685 86 1 265.720000 55.675000 11.790000
686 86 1 269.650000 55.675000 11.790000
687 86 1 273.580000 55.675000 11.790000
688 86 1 277.510000 55.675000 11.790000
689 87 1 281.440000 55.675000 11.790000
690 87 1 285.370000 55.675000 11.790000
691 87 1 289.300000 55.675000 11.790000
692 87 1 293.230000 55.675000 11.790000
693 87 1 297.160000 55.675000 11.790000
694 87 1 301.090000 55.675000 11.790000
695 87 1 305.020000 55.675000 11.790000
696 87 1 308.950000 55.675000 11.790000
697 88 1 312.880000 55.675000 11.790000
698 88 1 316.810000 55.675000 11.790000
699 88 1 320.740000 55.675000 11.790000
700 88 1 324.670000 55.675000 11.790000
701 88 1 328.600000 55.675000 11.790000
702 88 1 332.530000 55.675000 11.790000
703 88 1 336.460000 55.675000 11.790000
704 88 1 340.390000 55.675000 11.790000
705 89 1 344.320000 55.675000 11.790000
706 89 1 348.250000 55.675000 11.790000
707 89 1 352.180000 55.675000 11.790000
708 89 1 356.110000 55.675000 11.790000
709 89 1 360.040000 55.675000 11.790000
710 89 1 363.970000 55.675000 11.790000
711 89 1 367.900000 55.675000 11.790000
712 89 1 371.830000 55.675000 11.790000
713 90 1 375.760000 55.675000 11.790000
714 90 1 379.690000 55.675000 11.790000
715 90 1 383.620000 55.675000 11.790000
716 90 1 387.550000 55.675000 11.790000
717 90 1 391.480000 55.675000 11.790000
718 90 1 395.410000 55.675000 11.790000
719 90 1 399.340000 55.675000 11.790000
720 90 1 403.270000 55.675000 11.790000
721 91 1 250.000000 58.950000 11.790000
722 91 1 253.930000 58.950000 11.790000
723 91 1 257.860000 58.950000 11.790000
724 91 1 261.790000 58.950000 11.790000
725 91 1 265.720000 58.950000 11.790000
726 91 1 269.650000 58.950000 11.790000
727 91 1 273.580000 58.950000 11.790000
728 91 1 277.510000 58.950000 11.790000
729 92 1 281.440000 58.950000 11.790000
730 92 1 285.370000 58.950000 11.790000
731 92 1 289.300000 58.950000 11.790000
732 92 1 293.230000 58.950000 11.790000
733 92 1 297.160000 58.950000 11.790000
734 92 1 301.090000 58.950000 11.790000
735 92 1 305.020000 58.950000 11.790000
736 92 1 308.950000 58.950000 11.790000
737 93 1 312.880000 58.950000 11.790000
738 93 1 316.810000 58.950000 11.790000
739 93 1 320.740000 58.950000 11.790000
740 93 1 324.670000 58.950000 11.790000
741 93 1 328.600000 58.950000 11.790000
742 93 1 332.530000 58.950000 11.790000
743 93 1 336.460000 58.950000 11.790000
744 93 1 340.390000 58.950000 11.790000
745 94 1 344.320000 58.950000 11.790000
746 94 1 348.250000 58.950000 11.790000
747 94 1 352.180000 58.950000 11.790000
748 94 1 356.110000 58.950000 11.790000
749 94 1 360.040000 58.950000 11.790000
750 94 1 363.970000 58.950000 11.790000
751 94 1 367.900000 58.950000 11.790000
752 94 1 371.830000 58.950000 11.790000