water (written by ASE) 

12000 	 atoms 
2  atom types
0.0                       0  xlo xhi
0.0                       0  ylo yhi
0.0                       0  zlo zhi


Atoms 

