ITEM: TIMESTEP
0
ITEM: NUMBER OF ATOMS
32000
ITEM: BOX BOUNDS pp pp pp
-0.0000000000000000e+00 4.0000000000000000e+01
-0.0000000000000000e+00 4.0000000000000000e+01
3.0000000000000000e+00 1.4000000000000000e+01
ITEM: ATOMS mass type xs ys zs 
1 1 0.0200506 0.0074062 0.0170707 
1 1 0.00659093 0.00788293 0.096597 
1 1 0.0264692 0.0193045 0.124875 
1 1 0.0247364 0.00810337 0.0766572 
1 1 0.00615275 0.032619 0.108287 
1 1 0.0537865 0.00885819 0.00758046 
1 1 0.0467929 0.00635466 0.0920062 
1 1 0.066486 0.0280758 0.0406581 
1 1 0.0378406 0.0273988 0.0213298 
1 1 0.0714184 0.0157403 0.0194287 
1 1 0.0358723 0.03325 0.0425716 
1 1 0.051012 0.0291625 0.127566 
1 1 0.0553895 0.000145046 0.0717665 
1 1 0.0814403 0.016 0.13366 
1 1 0.0860094 0.00272304 0.0593946 
1 1 0.0958547 0.0348809 0.0705333 
1 1 0.0949095 0.0235971 0.0234726 
1 1 0.076524 0.0311711 0.134044 
1 1 0.118493 0.028019 0.00393999 
1 1 0.137187 0.00909119 0.0402443 
1 1 0.128552 0.0288329 0.0877896 
1 1 0.107184 0.00757554 0.111535 
1 1 0.110051 0.0196045 0.0979457 
1 1 0.121655 0.0327087 0.0391717 
1 1 0.110173 0.00442124 0.00437101 
1 1 0.138225 0.024481 0.115387 
1 1 0.164698 0.0105204 0.0210466 
1 1 0.168931 0.0295127 0.0923277 
1 1 0.158935 0.00769071 0.069355 
1 1 0.176615 0.0064498 0.00902004 
1 1 0.162458 0.0326617 0.0664304 
1 1 0.189734 0.0146108 0.00699262 
1 1 0.212312 0.0228106 0.028602 
1 1 0.19265 0.0340254 0.0806225 
1 1 0.19081 0.00848004 0.129625 
1 1 0.198257 0.0251402 0.029303 
1 1 0.210381 0.0264527 0.10583 
1 1 0.186478 0.0189688 0.105142 
1 1 0.215234 0.0186075 0.115917 
1 1 0.236841 0.0036281 0.120729 
1 1 0.239484 0.0310576 0.0463385 
1 1 0.237153 0.00638267 0.0184218 
1 1 0.236217 0.0100386 0.101171 
1 1 0.282487 0.0181709 0.0187123 
1 1 0.250624 0.0293503 0.138163 
1 1 0.256018 0.0159782 0.0645718 
1 1 0.284396 0.0293951 0.099982 
1 1 0.265638 0.0091549 0.0780622 
1 1 0.257706 0.0302043 0.0886902 
1 1 0.302048 0.00158512 0.0295952 
1 1 0.302749 0.0272918 0.0412309 
1 1 0.289688 0.00802651 0.0739534 
1 1 0.319642 0.00570234 0.0283941 
1 1 0.32361 0.0297382 0.130164 
1 1 0.345365 0.0231876 0.0778645 
1 1 0.323955 0.00617489 0.0620701 
1 1 0.343624 0.0132772 0.0519279 
1 1 0.323138 0.022569 0.122676 
1 1 0.371874 0.0188674 0.0733451 
1 1 0.389367 0.00081287 0.0502719 
1 1 0.366313 0.0333291 0.00572467 
1 1 0.360272 0.0312384 0.104258 
1 1 0.374611 0.0162089 0.0638742 
1 1 0.407802 0.0154175 0.095344 
1 1 0.421604 0.022814 0.00447794 
1 1 0.399714 0.0109339 0.086899 
1 1 0.419755 0.0155898 0.138913 
1 1 0.43333 0.0108195 0.0966792 
1 1 0.429283 0.0287817 0.0425315 
1 1 0.457456 0.0217527 0.0738168 
1 1 0.451146 0.0325171 0.0431134 
1 1 0.478262 0.0273748 0.126666 
1 1 0.481243 0.0167075 0.0365828 
1 1 0.473865 0.020429 0.00842285 
1 1 0.496016 0.0191541 0.0885352 
1 1 0.467749 0.0109069 0.0846865 
1 1 0.0179186 0.0401018 0.0719281 
1 1 0.0311387 0.05709 0.0345111 
1 1 0.00514581 0.0546488 0.0390846 
1 1 0.0185861 0.0550764 0.110262 
1 1 0.0628649 0.0543432 0.0186849 
1 1 0.0483729 0.0428093 0.0873021 
1 1 0.0709345 0.0510893 0.109349 
1 1 0.0473905 0.0699249 0.10836 
1 1 0.0542169 0.0641081 0.0810375 
1 1 0.0694298 0.0449304 0.0656526 
1 1 0.0876041 0.0561476 0.0425568 
1 1 0.0971788 0.0460631 0.0976574 
1 1 0.116531 0.0535465 0.0465014 
1 1 0.141357 0.045477 0.0234287 
1 1 0.138529 0.0584085 0.00429249 
1 1 0.116666 0.0666601 0.0434129 
1 1 0.138997 0.050877 0.0893128 
1 1 0.121316 0.0428273 0.132199 
1 1 0.173063 0.0471494 0.0288712 
1 1 0.161205 0.0513069 0.140553 
1 1 0.169296 0.0599083 0.0327435 
1 1 0.167989 0.0520062 0.136442 
1 1 0.190678 0.0587677 0.12891 
1 1 0.211399 0.0693261 0.0616378 
1 1 0.194165 0.0599251 0.00241567 
1 1 0.211672 0.0465659 0.0402027 
1 1 0.188696 0.0443801 0.091408 
1 1 0.198292 0.0664622 0.112297 
1 1 0.217976 0.0445294 0.102058 
1 1 0.244117 0.0517493 0.0991719 
1 1 0.227374 0.0682242 0.0530454 
1 1 0.235378 0.0397618 0.106695 
1 1 0.270542 0.0455164 0.0427066 
1 1 0.273768 0.0657497 0.109498 
1 1 0.252559 0.0588424 0.059528 
1 1 0.281247 0.0393477 0.0675222 
1 1 0.304161 0.0530229 0.0502698 
1 1 0.29206 0.05058 0.139816 
1 1 0.308708 0.0571182 0.0412278 
1 1 0.301964 0.0430407 0.118121 
1 1 0.327672 0.0459428 0.042474 
1 1 0.349879 0.0513468 0.119705 
1 1 0.356073 0.06578 0.0525657 
1 1 0.33357 0.0702573 0.0847244 
1 1 0.325576 0.0392334 0.0349879 
1 1 0.327958 0.0503275 0.125335 
1 1 0.355571 0.0587825 0.116633 
1 1 0.338471 0.0639671 0.0536796 
1 1 0.382376 0.038008 0.140311 
1 1 0.372211 0.0678952 0.12278 
1 1 0.379775 0.0421788 0.0536997 
1 1 0.363411 0.0575295 0.0202426 
1 1 0.42209 0.0526431 0.00574672 
1 1 0.403619 0.0383488 0.0485804 
1 1 0.393845 0.0587338 0.0949787 
1 1 0.422198 0.0454497 0.110773 
1 1 0.39925 0.069101 0.0311288 
1 1 0.407468 0.0368646 0.125681 
1 1 0.411007 0.0641452 0.112533 
1 1 0.434715 0.0674528 0.127981 
1 1 0.451267 0.051556 0.0514592 
1 1 0.447145 0.0455271 0.141781 
1 1 0.463834 0.0619642 0.0492089 
1 1 0.431534 0.0465513 0.0110696 
1 1 0.429282 0.0414412 0.0948405 
1 1 0.434866 0.0657531 0.0914802 
1 1 0.477376 0.0492277 0.0564225 
1 1 0.491396 0.0679467 0.102975 
1 1 0.472432 0.0384016 0.0881236 
1 1 0.48686 0.0516406 0.00524111 
1 1 0.477742 0.0622436 0.132167 
1 1 0.495879 0.0690193 0.0707918 
1 1 0.0151149 0.0777922 0.0317863 
1 1 0.00184501 0.0931409 0.0840822 
1 1 0.0345742 0.0948119 0.06135 
1 1 0.0249682 0.0803047 0.0102695 
1 1 0.00788149 0.101046 0.0202004 
1 1 0.00666901 0.080064 0.0870619 
1 1 0.0213439 0.102052 0.0980449 
1 1 0.0499504 0.104415 0.00189013 
1 1 0.0537911 0.0768268 0.00861817 
1 1 0.0610205 0.0964271 0.0981963 
1 1 0.0381381 0.0834505 0.107222 
1 1 0.0497391 0.101932 0.0748317 
1 1 0.077607 0.0839826 0.0519269 
1 1 0.0780499 0.0741306 0.136027 
1 1 0.0933441 0.0946332 0.135363 
1 1 0.102609 0.0736297 0.103278 
1 1 0.0992951 0.10367 0.0229294 
1 1 0.0949593 0.0888208 0.0506616 
1 1 0.0994235 0.0721108 0.110396 
1 1 0.0727004 0.0855563 0.0910601 
1 1 0.136807 0.0790502 0.00781043 
1 1 0.112537 0.0779862 0.0246708 
1 1 0.142701 0.104607 0.0815307 
1 1 0.120537 0.093398 0.12246 
1 1 0.135765 0.0917036 0.0277752 
1 1 0.152303 0.0829206 0.0722568 
1 1 0.164255 0.103802 0.122894 
1 1 0.175432 0.0815525 0.137969 
1 1 0.156344 0.0743711 0.0976572 
1 1 0.163987 0.0991155 0.00403025 
1 1 0.16934 0.104555 0.0867781 
1 1 0.185378 0.080198 0.0312314 
1 1 0.204128 0.0954629 0.0573341 
1 1 0.200347 0.0921435 0.011707 
1 1 0.18342 0.0828604 0.0709338 
1 1 0.197493 0.0955829 0.123415 
1 1 0.229661 0.0816997 0.0193959 
1 1 0.229027 0.0959572 0.111615 
1 1 0.239398 0.104252 0.0250025 
1 1 0.224427 0.0901701 0.131715 
1 1 0.255177 0.0762871 0.0346145 
1 1 0.278358 0.0893798 0.0525804 
1 1 0.252426 0.0847212 0.127669 
1 1 0.273913 0.100951 0.0243367 
1 1 0.250205 0.0815363 0.0527612 
1 1 0.28007 0.0790995 0.0664134 
1 1 0.267829 0.097727 0.115807 
1 1 0.303335 0.0792592 0.0720304 
1 1 0.310948 0.0950476 0.140518 
1 1 0.308931 0.0754544 0.103367 
1 1 0.297274 0.0979691 0.0666485 
1 1 0.31509 0.102178 0.125286 
1 1 0.330684 0.105184 0.0604671 
1 1 0.354484 0.0810593 0.0334456 
1 1 0.321437 0.080154 0.0239005 
1 1 0.336191 0.100428 0.0546997 
1 1 0.35768 0.0902749 0.0492922 
1 1 0.384745 0.0886911 0.0776001 
1 1 0.362043 0.0896596 0.142047 
1 1 0.362605 0.0949397 0.104486 
1 1 0.37808 0.0731806 0.0894245 
1 1 0.380739 0.0854841 0.00814577 
1 1 0.396612 0.0757566 0.0063953 
1 1 0.416854 0.0800556 0.0839095 
1 1 0.404105 0.104583 0.0962202 
1 1 0.401826 0.100578 0.0130653 
1 1 0.403105 0.0991443 0.125384 
1 1 0.427984 0.0910481 0.0436794 
1 1 0.423137 0.0845499 0.1362 
1 1 0.438973 0.0730851 0.0392398 
1 1 0.430548 0.0989867 0.0368902 
1 1 0.44896 0.0873899 0.0991286 
1 1 0.447577 0.0760587 0.00165813 
1 1 0.445791 0.0940811 0.115525 
1 1 0.451696 0.105794 0.0414583 
1 1 0.467592 0.0728739 0.0388472 
1 1 0.472672 0.102394 0.0520343 
1 1 0.491066 0.0909094 0.00453144 
1 1 0.473487 0.0848286 0.0470789 
1 1 0.49666 0.0853421 0.00217084 
1 1 0.479794 0.104903 0.0954296 
1 1 0.0319985 0.123302 0.0396183 
1 1 0.0174888 0.141025 0.0116406 
1 1 0.0103299 0.117331 0.116604 
1 1 0.0061682 0.116697 0.0297272 
1 1 0.0322275 0.137068 0.128099 
1 1 0.0103539 0.128403 0.115942 
1 1 0.0613175 0.127428 0.0646188 
1 1 0.0369725 0.128338 0.0741277 
1 1 0.0622122 0.12248 0.110359 
1 1 0.0671147 0.139786 0.0415549 
1 1 0.0898901 0.134799 0.0435461 
1 1 0.0805836 0.113017 0.084484 
1 1 0.081967 0.11548 0.0592141 
1 1 0.0915801 0.137843 0.0734992 
1 1 0.115734 0.124702 0.112929 
1 1 0.113517 0.132572 0.0325543 
1 1 0.140246 0.128241 0.048049 
1 1 0.142198 0.124452 0.141433 
1 1 0.109933 0.109578 0.111735 
1 1 0.12448 0.124791 0.0561355 
1 1 0.17199 0.142297 0.0235601 
1 1 0.176529 0.129192 0.0935273 
1 1 0.14935 0.125074 0.0633958 
1 1 0.179633 0.112896 0.0500071 
1 1 0.196653 0.132465 0.0374889 
1 1 0.200074 0.138031 0.0860359 
1 1 0.19227 0.113822 0.0501845 
1 1 0.229717 0.107319 0.0297679 
1 1 0.215637 0.117054 0.087637 
1 1 0.234094 0.139009 0.0576184 
1 1 0.240867 0.112301 0.12352 
1 1 0.220041 0.112047 0.0790104 
1 1 0.228099 0.133354 0.0384153 
1 1 0.265209 0.112681 0.0189027 
1 1 0.251557 0.115429 0.0954243 
1 1 0.262451 0.138049 0.103143 
1 1 0.275657 0.11041 0.113207 
1 1 0.252434 0.129076 0.0144121 
1 1 0.283595 0.116819 0.134884 
1 1 0.274287 0.127876 0.0513121 
1 1 0.2598 0.141018 0.108684 
1 1 0.308125 0.125361 0.0927453 
1 1 0.293721 0.109361 0.0332704 
1 1 0.286398 0.13607 0.0678874 
1 1 0.297258 0.142224 0.0599373 
1 1 0.315467 0.121306 0.0740713 
1 1 0.322925 0.123528 0.00174183 
1 1 0.352564 0.118039 0.0328512 
1 1 0.340263 0.134896 0.0837107 
1 1 0.341997 0.11593 0.129314 
1 1 0.337757 0.128581 0.045932 
1 1 0.370008 0.110465 0.0858366 
1 1 0.386526 0.123462 0.0504616 
1 1 0.380487 0.117359 0.0102338 
1 1 0.382157 0.112102 0.106687 
1 1 0.360961 0.122692 0.0641134 
1 1 0.382474 0.141798 0.136956 
1 1 0.398498 0.129343 0.123883 
1 1 0.413247 0.137064 0.0287089 
1 1 0.42532 0.130241 0.12436 
1 1 0.403289 0.127117 0.0831955 
1 1 0.421921 0.117869 0.0362676 
1 1 0.422285 0.13757 0.128048 
1 1 0.444851 0.112654 0.111489 
1 1 0.44818 0.117134 0.0221161 
1 1 0.463562 0.132822 0.0761138 
1 1 0.497719 0.114501 0.0225866 
1 1 0.488854 0.121615 0.101813 
1 1 0.466456 0.1255 0.11136 
1 1 0.489989 0.12804 0.0767125 
1 1 0.000554084 0.143065 0.025915 
1 1 0.0278291 0.157724 0.10959 
1 1 0.00474121 0.157023 0.134413 
1 1 0.0126418 0.176379 0.0687973 
1 1 0.0504323 0.154292 0.105924 
1 1 0.0405429 0.168536 0.0236875 
1 1 0.0450778 0.149388 0.0255306 
1 1 0.0402479 0.177433 0.015156 
1 1 0.0528584 0.144721 0.119373 
1 1 0.0591739 0.167409 0.0915435 
1 1 0.096466 0.164541 0.0565223 
1 1 0.0749655 0.149221 0.0946502 
1 1 0.0875119 0.169563 0.0889837 
1 1 0.138513 0.15551 0.123037 
1 1 0.139352 0.153458 0.0321823 
1 1 0.118985 0.171092 0.0729517 
1 1 0.113631 0.149446 0.104198 
1 1 0.114376 0.178542 0.00921495 
1 1 0.108663 0.154558 0.0351596 
1 1 0.112303 0.172957 0.110002 
1 1 0.137576 0.168527 0.016119 
1 1 0.161542 0.163658 0.004502 
1 1 0.164899 0.146874 0.128325 
1 1 0.152138 0.147668 0.118427 
1 1 0.172132 0.162964 0.102124 
1 1 0.161287 0.146363 0.0296921 
1 1 0.163494 0.172349 0.020681 
1 1 0.185735 0.162626 0.0791688 
1 1 0.214178 0.147936 0.109821 
1 1 0.192971 0.165202 0.0286428 
1 1 0.228715 0.169265 0.0509016 
1 1 0.232337 0.157822 0.0245501 
1 1 0.221536 0.168935 0.105469 
1 1 0.232984 0.145007 0.130007 
1 1 0.249318 0.163242 0.0862299 
1 1 0.267485 0.156094 0.0417258 
1 1 0.258324 0.16891 0.126643 
1 1 0.283424 0.172225 0.125325 
1 1 0.260111 0.170256 0.00957968 
1 1 0.27814 0.166047 0.106318 
1 1 0.305761 0.157216 0.0747777 
1 1 0.293698 0.175104 0.0042887 
1 1 0.318822 0.148934 0.00590402 
1 1 0.317882 0.172184 0.0187837 
1 1 0.318868 0.147253 0.0158936 
1 1 0.31982 0.15142 0.104303 
1 1 0.356219 0.156115 0.0400919 
1 1 0.330796 0.159601 0.0966923 
1 1 0.342782 0.158508 0.0158063 
1 1 0.344986 0.143096 0.133133 
1 1 0.33576 0.175675 0.105226 
1 1 0.376069 0.164537 0.11098 
1 1 0.384885 0.142988 0.0202478 
1 1 0.364822 0.156249 0.0838052 
1 1 0.386195 0.172103 0.0794284 
1 1 0.393755 0.149023 0.0642909 
1 1 0.395288 0.16703 0.00273721 
1 1 0.409002 0.172666 0.0765786 
1 1 0.418644 0.155042 0.125684 
1 1 0.402421 0.152381 0.0933419 
1 1 0.412307 0.177343 0.0671245 
1 1 0.435725 0.14298 0.0170896 
1 1 0.459281 0.156369 0.0182996 
1 1 0.45596 0.169048 0.111743 
1 1 0.445495 0.147254 0.128302 
1 1 0.459106 0.152852 0.0948306 
1 1 0.429471 0.150194 0.0211744 
1 1 0.439217 0.167664 0.095446 
1 1 0.481963 0.148229 0.036832 
1 1 0.481483 0.1754 0.0783718 
1 1 0.466428 0.158864 0.00150454 
1 1 0.48726 0.154618 0.0828734 
1 1 0.474529 0.172736 0.129651 
1 1 0.0274714 0.186535 0.0747004 
1 1 0.0297658 0.202293 0.0476893 
1 1 0.0649415 0.20148 0.0265662 
1 1 0.0596196 0.179083 0.0854247 
1 1 0.0458306 0.197808 0.128438 
1 1 0.04405 0.186223 0.107464 
1 1 0.0598059 0.192374 0.0121492 
1 1 0.0471284 0.212527 0.134736 
1 1 0.0840926 0.187365 0.0460933 
1 1 0.0791856 0.20186 0.115773 
1 1 0.105395 0.208514 0.133286 
1 1 0.102096 0.185385 0.11374 
1 1 0.0898287 0.183562 0.0122388 
1 1 0.0739489 0.192276 0.0941302 
1 1 0.0994289 0.197543 0.10241 
1 1 0.117181 0.196482 0.0503595 
1 1 0.107624 0.204991 0.00753797 
1 1 0.131326 0.200212 0.0474333 
1 1 0.143009 0.180262 0.0790089 
1 1 0.144003 0.204961 0.0281434 
1 1 0.169091 0.190617 0.0529579 
1 1 0.159388 0.20561 0.120337 
1 1 0.169992 0.204433 0.0537483 
1 1 0.143151 0.181232 0.0869715 
1 1 0.195915 0.213832 0.021137 
1 1 0.203132 0.181397 0.0804437 
1 1 0.179525 0.188078 0.133804 
1 1 0.207766 0.188954 0.13818 
1 1 0.200515 0.200182 0.0588162 
1 1 0.181726 0.187944 0.108775 
1 1 0.229196 0.208919 0.00923525 
1 1 0.24539 0.191607 0.0272391 
1 1 0.21567 0.199569 0.123368 
1 1 0.237147 0.210177 0.102315 
1 1 0.216083 0.180528 0.00602594 
1 1 0.24043 0.187193 0.036774 
1 1 0.225214 0.210061 0.0540093 
1 1 0.248238 0.211633 0.108683 
1 1 0.241592 0.184986 0.135747 
1 1 0.278509 0.208312 0.0467019 
1 1 0.267535 0.183397 0.0534266 
1 1 0.275195 0.188154 0.0166651 
1 1 0.252567 0.205489 0.00702294 
1 1 0.271507 0.197897 0.0981463 
1 1 0.309566 0.18318 0.0676635 
1 1 0.317312 0.205475 0.0315446 
1 1 0.294476 0.202756 0.116223 
1 1 0.314497 0.197316 0.0303057 
1 1 0.296454 0.202465 0.0856751 
1 1 0.294753 0.179287 0.0637963 
1 1 0.340546 0.19122 0.0172269 
1 1 0.332468 0.196124 0.114777 
1 1 0.3547 0.178903 0.037926 
1 1 0.369732 0.207073 0.0247352 
1 1 0.390106 0.199053 0.0671722 
1 1 0.366717 0.185074 0.0759314 
1 1 0.37657 0.202207 0.081422 
1 1 0.418448 0.197277 0.0706194 
1 1 0.424207 0.194831 0.0168538 
1 1 0.404643 0.201772 0.0849116 
1 1 0.440187 0.190854 0.00449176 
1 1 0.445378 0.200579 0.110589 
1 1 0.462113 0.208523 0.0520502 
1 1 0.429084 0.191079 0.111438 
1 1 0.456277 0.19138 0.0459792 
1 1 0.453896 0.192223 0.128537 
1 1 0.469101 0.18748 0.01166 
1 1 0.494872 0.19363 0.0426254 
1 1 0.48845 0.208946 0.123559 
1 1 0.466851 0.19055 0.132929 
1 1 0.475839 0.213904 0.025878 
1 1 0.486292 0.192795 0.101509 
1 1 0.495385 0.196317 0.0213275 
1 1 0.0181915 0.240114 0.0525837 
1 1 0.00561165 0.226321 0.122772 
1 1 0.0127277 0.222106 0.0786147 
1 1 0.05759 0.222684 0.095119 
1 1 0.0378556 0.225882 0.0220338 
1 1 0.0631513 0.242434 0.00504248 
1 1 0.0682387 0.241468 0.124243 
1 1 0.0481188 0.24583 0.0776582 
1 1 0.0823138 0.226569 0.088925 
1 1 0.0869147 0.249406 0.0611524 
1 1 0.0861035 0.216764 0.0478639 
1 1 0.104689 0.229665 0.0075557 
1 1 0.0720022 0.216439 0.133266 
1 1 0.105777 0.221098 0.127343 
1 1 0.0866143 0.243683 0.05104 
1 1 0.0955508 0.243495 0.131926 
1 1 0.127369 0.216561 0.0928885 
1 1 0.109373 0.238523 0.0809075 
1 1 0.129173 0.223983 0.0677995 
1 1 0.116645 0.246753 0.0866813 
1 1 0.14386 0.236236 0.0158765 
1 1 0.167063 0.231269 0.0609474 
1 1 0.148914 0.240241 0.107075 
1 1 0.149646 0.243687 0.0355966 
1 1 0.149329 0.244994 0.118275 
1 1 0.154854 0.219769 0.108785 
1 1 0.172126 0.244978 0.0695644 
1 1 0.213187 0.225495 0.0758771 
1 1 0.190135 0.241103 0.101709 
1 1 0.181685 0.216024 0.121455 
1 1 0.183129 0.220012 0.109111 
1 1 0.18443 0.224021 0.0174584 
1 1 0.208875 0.214453 0.122354 
1 1 0.210174 0.232833 0.059903 
1 1 0.189996 0.246206 0.00361649 
1 1 0.193402 0.249261 0.108824 
1 1 0.237446 0.234159 0.0495628 
1 1 0.246398 0.229625 0.0450844 
1 1 0.230057 0.239945 0.0991111 
1 1 0.269353 0.219088 0.0588474 
1 1 0.268142 0.249949 0.0827998 
1 1 0.251635 0.234932 0.134965 
1 1 0.282746 0.218118 0.139711 
1 1 0.29576 0.229657 0.010279 
1 1 0.288338 0.233721 0.0955552 
1 1 0.317295 0.220136 0.133333 
1 1 0.292584 0.241105 0.0205545 
1 1 0.31468 0.225208 0.0702404 
1 1 0.296871 0.238226 0.111689 
1 1 0.331467 0.234474 0.0788218 
1 1 0.356508 0.216428 0.101515 
1 1 0.355135 0.242919 0.103957 
1 1 0.331037 0.235571 0.0198963 
1 1 0.342164 0.216151 0.0602147 
1 1 0.341117 0.245354 0.118906 
1 1 0.389309 0.226263 0.0331652 
1 1 0.358972 0.229023 0.0233191 
1 1 0.388867 0.220402 0.116981 
1 1 0.380926 0.243613 0.10201 
1 1 0.37383 0.249867 0.0199838 
1 1 0.371431 0.226452 0.0683795 
1 1 0.368582 0.245698 0.11897 
1 1 0.412356 0.220461 0.0659381 
1 1 0.405522 0.248576 0.106333 
1 1 0.416896 0.244993 0.0158196 
1 1 0.395448 0.239907 0.0702834 
1 1 0.415558 0.219586 0.0362198 
1 1 0.41614 0.226186 0.131341 
1 1 0.441209 0.226177 0.141497 
1 1 0.439454 0.233062 0.0567805 
1 1 0.440415 0.227254 0.0100403 
1 1 0.441907 0.214488 0.105501 
1 1 0.43389 0.246333 0.1398 
1 1 0.463305 0.229481 0.0927237 
1 1 0.468778 0.238272 0.0407832 
1 1 0.492153 0.228371 0.0226419 
1 1 0.466304 0.226431 0.125459 
1 1 0.482027 0.238703 0.0473583 
1 1 0.491527 0.226951 0.119854 
1 1 0.00855145 0.275246 0.0313204 
1 1 0.0221427 0.261071 0.0895091 
1 1 0.032304 0.277665 0.0205011 
1 1 0.0217159 0.255517 0.0542685 
1 1 0.000138652 0.257297 0.090199 
1 1 0.0131377 0.28146 0.103375 
1 1 0.0692442 0.270601 0.0653408 
1 1 0.0623199 0.250012 0.0175551 
1 1 0.0393276 0.267424 0.0155624 
1 1 0.0570331 0.25112 0.105427 
1 1 0.0480628 0.272196 0.116476 
1 1 0.102437 0.269211 0.0151443 
1 1 0.0924788 0.275955 0.0869171 
1 1 0.0724378 0.266931 0.0244685 
1 1 0.0958159 0.266208 0.0669526 
1 1 0.126802 0.277811 0.063999 
1 1 0.129227 0.254303 0.0898849 
1 1 0.118675 0.270073 0.0294501 
1 1 0.116706 0.285624 0.101698 
1 1 0.154536 0.27749 0.0156522 
1 1 0.171387 0.256135 0.0638281 
1 1 0.153044 0.266256 0.114562 
1 1 0.159493 0.284489 0.0605377 
1 1 0.168022 0.26349 0.132371 
1 1 0.144942 0.26952 0.109367 
1 1 0.176961 0.269277 0.022537 
1 1 0.204221 0.257553 0.0313839 
1 1 0.179792 0.282307 0.0855507 
1 1 0.206219 0.277578 0.123993 
1 1 0.206543 0.26689 0.0576216 
1 1 0.189141 0.280619 0.0985028 
1 1 0.217999 0.250831 0.132864 
1 1 0.237405 0.263489 0.112389 
1 1 0.242984 0.27664 0.0098008 
1 1 0.228308 0.25508 0.012484 
1 1 0.247475 0.260406 0.0765999 
1 1 0.22669 0.267449 0.115135 
1 1 0.275384 0.284409 0.0410812 
1 1 0.268601 0.256246 0.0506434 
1 1 0.25115 0.275475 0.0453748 
1 1 0.285692 0.256281 0.126685 
1 1 0.264143 0.269235 0.137544 
1 1 0.272492 0.272154 0.0326062 
1 1 0.309142 0.268031 0.115166 
1 1 0.312655 0.252698 0.045577 
1 1 0.295115 0.272726 0.0251102 
1 1 0.288416 0.28297 0.125077 
1 1 0.317722 0.260597 0.0495797 
1 1 0.289218 0.266505 0.108653 
1 1 0.303118 0.282749 0.0656988 
1 1 0.348345 0.283835 0.0471301 
1 1 0.339217 0.260812 0.0649104 
1 1 0.330716 0.280929 0.115666 
1 1 0.32794 0.278875 0.00581242 
1 1 0.346467 0.265932 0.0614842 
1 1 0.330034 0.279395 0.104088 
1 1 0.381186 0.250402 0.0102081 
1 1 0.366751 0.265319 0.0772987 
1 1 0.386453 0.27713 0.133983 
1 1 0.386259 0.262266 0.0899133 
1 1 0.370774 0.282995 0.138208 
1 1 0.399495 0.284077 0.00321512 
1 1 0.425464 0.272368 0.0369477 
1 1 0.409222 0.283963 0.0946499 
1 1 0.412978 0.25877 0.116379 
1 1 0.399425 0.278911 0.142228 
1 1 0.450746 0.258536 0.0206087 
1 1 0.429386 0.253091 0.115012 
1 1 0.455406 0.251669 0.107771 
1 1 0.434102 0.279191 0.125266 
1 1 0.460382 0.278068 0.0830351 
1 1 0.437033 0.268612 0.0460899 
1 1 0.45625 0.255405 0.101382 
1 1 0.460096 0.269106 0.00783984 
1 1 0.463869 0.279306 0.121738 
1 1 0.494529 0.256266 0.0665759 
1 1 0.478951 0.265883 0.0125826 
1 1 0.484999 0.281208 0.0848745 
1 1 0.487405 0.262246 0.0181408 
1 1 0.00407584 0.311174 0.0338939 
1 1 0.00144208 0.320696 0.127079 
1 1 0.0264551 0.297232 0.0587985 
1 1 0.0045268 0.289637 0.12342 
1 1 0.00881497 0.302122 0.0170438 
1 1 0.0174783 0.310874 0.122451 
1 1 0.0513999 0.293332 0.0644162 
1 1 0.0428771 0.317441 0.0629606 
1 1 0.0619864 0.316112 0.121211 
1 1 0.0701745 0.290155 0.125338 
1 1 0.0584346 0.286797 0.0414286 
1 1 0.037978 0.299242 0.131345 
1 1 0.0678885 0.297796 0.115158 
1 1 0.0517831 0.316414 0.044447 
1 1 0.0864798 0.302427 0.0688276 
1 1 0.105423 0.31668 0.010719 
1 1 0.0795548 0.315773 0.0619936 
1 1 0.0920206 0.290669 0.0362032 
1 1 0.108684 0.293876 0.0506433 
1 1 0.133653 0.302876 0.0783986 
1 1 0.110815 0.315412 0.139653 
1 1 0.13698 0.288177 0.0150104 
1 1 0.121044 0.315457 0.0974718 
1 1 0.158356 0.302234 0.0831164 
1 1 0.143328 0.320338 0.0458791 
1 1 0.177951 0.299279 0.0300933 
1 1 0.174371 0.296284 0.134768 
1 1 0.183269 0.294139 0.0098902 
1 1 0.210628 0.295663 0.0590375 
1 1 0.181033 0.312895 0.102156 
1 1 0.199996 0.296524 0.0100538 
1 1 0.212256 0.289216 0.130395 
1 1 0.196172 0.307664 0.099628 
1 1 0.233984 0.301565 0.0210631 
1 1 0.230215 0.297552 0.0623901 
1 1 0.237621 0.316051 0.121522 
1 1 0.254203 0.299386 0.0773021 
1 1 0.282126 0.310896 0.0266788 
1 1 0.272276 0.320545 0.0949635 
1 1 0.252537 0.315296 0.00989053 
1 1 0.255069 0.287958 0.0727396 
1 1 0.279463 0.291704 0.09887 
1 1 0.304264 0.295216 0.0440989 
1 1 0.294398 0.306355 0.139007 
1 1 0.320866 0.318193 0.128108 
1 1 0.306306 0.309024 0.0785885 
1 1 0.327528 0.298505 0.0446387 
1 1 0.357051 0.314595 0.0580571 
1 1 0.331844 0.315034 0.0517266 
1 1 0.380916 0.294485 0.0522153 
1 1 0.361768 0.295657 0.11448 
1 1 0.386123 0.293943 0.0798706 
1 1 0.362257 0.290564 0.0614639 
1 1 0.365985 0.319426 0.0242187 
1 1 0.414212 0.306188 0.0425135 
1 1 0.396243 0.317113 0.0768918 
1 1 0.424675 0.302593 0.133923 
1 1 0.413186 0.287784 0.067736 
1 1 0.409189 0.306877 0.116762 
1 1 0.445302 0.289681 0.0322949 
1 1 0.441683 0.31525 0.0385628 
1 1 0.449853 0.31344 0.132191 
1 1 0.431787 0.307186 0.072552 
1 1 0.43118 0.290269 0.141063 
1 1 0.457831 0.304478 0.123157 
1 1 0.491952 0.314257 0.0519156 
1 1 0.475068 0.301722 0.12458 
1 1 0.478799 0.310098 0.0941699 
1 1 0.477211 0.288519 0.039279 
1 1 0.486648 0.289775 0.136419 
1 1 0.0320563 0.340412 0.00254467 
1 1 0.0174694 0.346909 0.109319 
1 1 0.000407658 0.335818 0.0564293 
1 1 0.0275438 0.327272 0.00570256 
1 1 0.0218555 0.349434 0.0453661 
1 1 0.0423447 0.34702 0.0886689 
1 1 0.0667042 0.343361 0.0848958 
1 1 0.0617746 0.333507 0.0058079 
1 1 0.0561064 0.338465 0.00699874 
1 1 0.042653 0.350038 0.140127 
1 1 0.0490397 0.325364 0.133367 
1 1 0.0916912 0.353039 0.0373241 
1 1 0.0856167 0.327333 0.10239 
1 1 0.0980366 0.345717 0.0104657 
1 1 0.0771872 0.341663 0.0662942 
1 1 0.102952 0.333941 0.0879166 
1 1 0.115143 0.328557 0.0610811 
1 1 0.107333 0.341389 0.131544 
1 1 0.138383 0.343269 0.113303 
1 1 0.125165 0.342399 0.0431118 
1 1 0.173181 0.341611 0.0664575 
1 1 0.147924 0.324265 0.0695653 
1 1 0.150007 0.345372 0.0772365 
1 1 0.174453 0.343877 0.0666211 
1 1 0.143673 0.328383 0.14108 
1 1 0.196671 0.333067 0.0038607 
1 1 0.20449 0.342608 0.082269 
1 1 0.197849 0.339921 0.005357 
1 1 0.196873 0.33267 0.122737 
1 1 0.223514 0.356874 0.0557761 
1 1 0.246145 0.346275 0.138681 
1 1 0.227311 0.330036 0.119894 
1 1 0.249159 0.347971 0.0310931 
1 1 0.214335 0.325083 0.0532019 
1 1 0.219212 0.350989 0.0526104 
1 1 0.24141 0.335763 0.0521505 
1 1 0.246556 0.344955 0.139979 
1 1 0.275857 0.337599 0.0221845 
1 1 0.256326 0.321773 0.0249134 
1 1 0.273681 0.34268 0.137557 
1 1 0.284549 0.324059 0.0757056 
1 1 0.269526 0.343028 0.0779292 
1 1 0.306439 0.32199 0.012707 
1 1 0.299914 0.346244 0.02506 
1 1 0.296096 0.329688 0.0910843 
1 1 0.30891 0.330309 0.128433 
1 1 0.2876 0.35264 0.142685 
1 1 0.310672 0.355658 0.0974097 
1 1 0.326213 0.335412 0.0444779 
1 1 0.328471 0.355662 0.0996048 
1 1 0.343403 0.326464 0.129866 
1 1 0.351117 0.329005 0.0879393 
1 1 0.321779 0.338417 0.0494343 
1 1 0.339939 0.350576 0.135929 
1 1 0.385949 0.341073 0.0530402 
1 1 0.371616 0.324628 0.00367962 
1 1 0.379235 0.32757 0.130002 
1 1 0.361969 0.34121 0.0888059 
1 1 0.383745 0.341185 0.0629488 
1 1 0.360746 0.356775 0.0556077 
1 1 0.408978 0.341993 0.0228527 
1 1 0.422564 0.327901 0.0857026 
1 1 0.402168 0.340189 0.133415 
1 1 0.404065 0.328107 0.0682604 
1 1 0.399107 0.356485 0.120319 
1 1 0.44763 0.3358 0.108809 
1 1 0.429865 0.355014 0.072539 
1 1 0.441336 0.327815 0.0400705 
1 1 0.433239 0.345395 0.111296 
1 1 0.45397 0.329801 0.121417 
1 1 0.459133 0.353783 0.113216 
1 1 0.476082 0.330262 0.130929 
1 1 0.466661 0.323275 0.0430245 
1 1 0.482586 0.355424 0.0731897 
1 1 0.468815 0.332648 0.0385308 
1 1 0.493868 0.335891 0.0122743 
1 1 0.486301 0.3383 0.106668 
1 1 0.0306286 0.372297 0.12876 
1 1 0.0179408 0.383268 0.0626636 
1 1 0.0271012 0.381627 0.0801517 
1 1 0.0134719 0.364565 0.12388 
1 1 0.0468637 0.377089 0.0653229 
1 1 0.0600185 0.378612 0.140432 
1 1 0.0569201 0.386904 0.0157038 
1 1 0.0391364 0.367599 0.00580251 
1 1 0.0599103 0.361546 0.0742639 
1 1 0.0492324 0.38754 0.118055 
1 1 0.0774106 0.374459 0.0543702 
1 1 0.100002 0.378999 0.0144636 
1 1 0.104398 0.378945 0.110495 
1 1 0.0849531 0.360056 0.123514 
1 1 0.092954 0.380998 0.0181937 
1 1 0.0956483 0.359434 0.107797 
1 1 0.077953 0.380068 0.0895093 
1 1 0.113666 0.358342 0.07485 
1 1 0.128885 0.384702 0.0897541 
1 1 0.114084 0.36526 0.0469069 
1 1 0.107451 0.380509 0.111781 
1 1 0.130108 0.357874 0.110372 
1 1 0.129229 0.390888 0.0894454 
1 1 0.143202 0.365722 0.0315207 
1 1 0.16849 0.367153 0.0452016 
1 1 0.155873 0.359224 0.124455 
1 1 0.152505 0.383816 0.107958 
1 1 0.144808 0.372495 0.039022 
1 1 0.167527 0.364371 0.0124526 
1 1 0.160478 0.373277 0.116266 
1 1 0.186958 0.387461 0.0283672 
1 1 0.19117 0.362565 0.0833115 
1 1 0.211523 0.381326 0.141324 
1 1 0.179148 0.387045 0.130306 
1 1 0.192532 0.365351 0.0335711 
1 1 0.192262 0.362518 0.12281 
1 1 0.198123 0.38852 0.0889992 
1 1 0.235195 0.377885 0.0656876 
1 1 0.24559 0.363044 0.0771615 
1 1 0.217918 0.372723 0.104699 
1 1 0.21874 0.387938 0.0296543 
1 1 0.282323 0.36253 0.0093157 
1 1 0.260261 0.368874 0.0869016 
1 1 0.277483 0.385468 0.029453 
1 1 0.257512 0.382339 0.0918068 
1 1 0.281992 0.382599 0.100499 
1 1 0.303241 0.392722 0.103067 
1 1 0.304232 0.372853 0.0429265 
1 1 0.287185 0.36336 0.0936432 
1 1 0.30997 0.363509 0.140489 
1 1 0.312571 0.373046 0.0350124 
1 1 0.287023 0.360129 0.0554533 
1 1 0.349985 0.366094 0.0618052 
1 1 0.324503 0.385994 0.0645876 
1 1 0.356004 0.36847 0.142739 
1 1 0.354957 0.392396 0.0478089 
1 1 0.335461 0.361217 0.0274425 
1 1 0.333782 0.387616 0.0151701 
1 1 0.355114 0.371536 0.141406 
1 1 0.330593 0.377114 0.0967223 
1 1 0.376411 0.371567 0.0742824 
1 1 0.357186 0.381753 0.0602719 
1 1 0.378008 0.372922 0.101084 
1 1 0.398288 0.362812 0.105813 
1 1 0.394748 0.387499 0.0916854 
1 1 0.41951 0.372901 0.0311653 
1 1 0.426345 0.391638 0.0170802 
1 1 0.400927 0.377003 0.038776 
1 1 0.398615 0.383328 0.137413 
1 1 0.42535 0.377184 0.100784 
1 1 0.45311 0.364539 0.0510244 
1 1 0.43931 0.378465 0.124061 
1 1 0.456931 0.3914 0.0778662 
1 1 0.459329 0.358727 0.138326 
1 1 0.436838 0.361382 0.0369763 
1 1 0.44826 0.386305 0.0602263 
1 1 0.493799 0.369201 0.00792642 
1 1 0.497637 0.382105 0.132725 
1 1 0.471883 0.371125 0.0239131 
1 1 0.474784 0.389588 0.0998662 
1 1 0.0186812 0.412638 0.0229177 
1 1 0.0301635 0.409062 0.123403 
1 1 0.00328047 0.400722 0.103426 
1 1 0.00931505 0.425201 0.117341 
1 1 0.023986 0.39495 0.00479666 
1 1 0.0220754 0.419745 0.0857177 
1 1 0.00491632 0.398984 0.123411 
1 1 0.0374974 0.39873 0.0421017 
1 1 0.0595023 0.42179 0.0368508 
1 1 0.0570876 0.400502 0.112159 
1 1 0.0479493 0.413804 0.0496626 
1 1 0.0823496 0.403154 0.07995 
1 1 0.0964917 0.424865 0.124942 
1 1 0.0885288 0.417322 0.00402267 
1 1 0.0764997 0.408837 0.0879804 
1 1 0.105353 0.40132 0.0655364 
1 1 0.120611 0.413917 0.0270888 
1 1 0.10803 0.403378 0.0919401 
1 1 0.128209 0.414873 0.130202 
1 1 0.127682 0.415816 0.0800375 
1 1 0.144459 0.419562 0.0483312 
1 1 0.165252 0.403829 0.0118815 
1 1 0.177372 0.408949 0.0900171 
1 1 0.165705 0.393409 0.0356029 
1 1 0.154092 0.415783 0.0552449 
1 1 0.173715 0.399248 0.114389 
1 1 0.166937 0.42505 0.122742 
1 1 0.190892 0.426538 0.0347019 
1 1 0.201524 0.405518 0.0743017 
1 1 0.188441 0.40833 0.0370867 
1 1 0.214199 0.413419 0.0282034 
1 1 0.199445 0.423896 0.0890297 
1 1 0.229291 0.401122 0.0949001 
1 1 0.22113 0.425425 0.0464486 
1 1 0.246391 0.406096 0.142187 
1 1 0.256356 0.396399 0.0420987 
1 1 0.273415 0.416391 0.0446188 
1 1 0.275102 0.396785 0.120535 
1 1 0.276447 0.402896 0.010191 
1 1 0.250359 0.399743 0.0270495 
1 1 0.260106 0.417961 0.0780225 
1 1 0.281875 0.428068 0.0250672 
1 1 0.281754 0.426542 0.131118 
1 1 0.321058 0.40762 0.123908 
1 1 0.305277 0.423527 0.0812874 
1 1 0.317126 0.397419 0.0666295 
1 1 0.295975 0.408205 0.0908143 
1 1 0.349536 0.41868 0.0454542 
1 1 0.33042 0.421682 0.0680501 
1 1 0.350732 0.42519 0.111651 
1 1 0.352269 0.408695 0.0344584 
1 1 0.342859 0.39764 0.117601 
1 1 0.377722 0.400271 0.0251628 
1 1 0.3595 0.394605 0.141592 
1 1 0.380707 0.406975 0.119003 
1 1 0.380087 0.413162 0.0379546 
1 1 0.404743 0.399307 0.0131278 
1 1 0.425328 0.400011 0.0715509 
1 1 0.420197 0.423791 0.080362 
1 1 0.39488 0.408537 0.137785 
1 1 0.411348 0.415722 0.0715777 
1 1 0.447926 0.415393 0.0827018 
1 1 0.44644 0.416269 0.0740906 
1 1 0.429885 0.428043 0.119895 
1 1 0.490159 0.397153 0.0225682 
1 1 0.499632 0.40666 0.107155 
1 1 0.476594 0.398151 0.135549 
1 1 0.495222 0.414287 0.00659305 
1 1 0.467549 0.422253 0.00574452 
1 1 0.475905 0.412613 0.0815748 
1 1 0.0131397 0.448195 0.0878262 
1 1 0.0157886 0.442327 0.0631774 
1 1 0.000904322 0.457853 0.116546 
1 1 0.0586104 0.445489 0.0130987 