ITEM: TIMESTEP
0
ITEM: NUMBER OF ATOMS
32000
ITEM: BOX BOUNDS pp pp pp
-0.0000000000000000e+00 4.0000000000000000e+01
-0.0000000000000000e+00 4.0000000000000000e+01
-4.7999999999999998e+00 2.4600000000000001e+01
ITEM: ATOMS mass type xs ys zs 
1 1 0.17102 0.0976494 0.0350012 
1 1 0.192367 0.0957777 0.0143516 
1 1 0.205187 0.097565 0.0423176 
1 1 0.182771 0.126011 0.0309265 
1 1 0.609794 0.140923 0.046632 
1 1 0.664363 0.139018 0.0460722 
1 1 0.140553 0.143313 0.0446369 
1 1 0.221713 0.147915 0.0468621 
1 1 0.326252 0.174907 0.0427659 
1 1 0.364335 0.161546 0.0443093 
1 1 0.146409 0.178752 0.0293487 
1 1 0.161124 0.212682 0.0446753 
1 1 0.347169 0.20939 0.0235107 
1 1 0.380183 0.183644 0.0453452 
1 1 0.200899 0.258337 0.0340264 
1 1 0.242519 0.263244 0.0439414 
1 1 0.164315 0.376451 0.0249295 
1 1 0.187275 0.379731 0.0288759 
1 1 0.986506 0.387043 0.0423165 
1 1 0.424015 0.404671 0.039984 
1 1 0.438994 0.427447 0.0473602 
1 1 0.480062 0.426106 0.0247645 
1 1 0.500401 0.425366 0.045159 
1 1 0.524821 0.416259 0.0329098 
1 1 0.527986 0.428427 0.00505236 
1 1 0.677826 0.402909 0.0456855 
1 1 0.487476 0.458712 0.0435669 
1 1 0.516571 0.44442 0.0359585 
1 1 0.966844 0.45001 0.0376479 
1 1 0.00384705 0.47815 0.0474968 
1 1 0.861863 0.476405 0.0444643 
1 1 0.120498 0.507459 0.0434232 
1 1 0.53407 0.52961 0.0472071 
1 1 0.857463 0.528874 0.0449595 
1 1 0.920175 0.529217 0.0265431 
1 1 0.207126 0.552894 0.0327749 
1 1 0.896415 0.562452 0.0393434 
1 1 0.882589 0.604538 0.033278 
1 1 0.879653 0.590074 0.00782534 
1 1 0.869091 0.573028 0.0303348 
1 1 0.915236 0.596203 0.0247664 
1 1 0.920084 0.57359 0.0323895 
1 1 0.984452 0.616232 0.0474533 
1 1 0.795577 0.67074 0.00895828 
1 1 0.791247 0.662251 0.0409867 
1 1 0.948353 0.64773 0.0460972 
1 1 0.692087 0.732451 0.041173 
1 1 0.817274 0.739397 0.0331117 
1 1 0.099578 0.778685 0.0264458 
1 1 0.445569 0.771534 0.0164122 
1 1 0.466665 0.781107 0.0334922 
1 1 0.483485 0.772879 0.00773398 
1 1 0.496333 0.774447 0.0354294 
1 1 0.124879 0.794839 0.022117 
1 1 0.148251 0.801037 0.0125555 
1 1 0.153076 0.804724 0.0438147 
1 1 0.357111 0.791214 0.043692 
1 1 0.428341 0.790598 0.0318136 
1 1 0.420114 0.809309 0.0100158 
1 1 0.405925 0.798489 0.0459345 
1 1 0.441005 0.794185 0.00170114 
1 1 0.479352 0.810332 0.0423627 
1 1 0.492476 0.798886 0.0165372 
1 1 0.52669 0.816924 0.0428779 
1 1 0.756313 0.809801 0.0369407 
1 1 0.13252 0.822959 0.0319386 
1 1 0.165906 0.832225 0.0214771 
1 1 0.564662 0.849679 0.0439036 
1 1 0.135927 0.860786 0.0428778 
1 1 0.618151 0.880112 0.0434117 
1 1 0.508048 0.922086 0.0469445 
1 1 0.54471 0.911541 0.0402945 
1 1 0.635601 0.919747 0.0412884 
1 1 0.583385 0.938027 0.0351906 
1 1 0.616328 0.931823 0.0281022 
1 1 0.640043 0.953986 0.0339207 
1 1 0.451824 0.977817 0.0376621 
1 1 0.138573 0.0227237 0.0884378 
1 1 0.179442 0.0321113 0.0734477 
1 1 0.258234 0.00280023 0.0778686 
1 1 0.279897 0.0119688 0.0909393 
1 1 0.366869 0.0148986 0.0890223 
1 1 0.416142 0.0235174 0.0940986 
1 1 0.455362 0.00356127 0.0880133 
1 1 0.434983 0.0129625 0.0734672 
1 1 0.505156 0.0273103 0.0893272 
1 1 0.622771 0.0301778 0.0841037 
1 1 0.670292 0.0323812 0.0936354 
1 1 0.957337 0.0127086 0.0683522 
1 1 0.998436 0.0205583 0.0950306 
1 1 0.981869 0.00115297 0.0833498 
1 1 0.20268 0.0384304 0.062736 
1 1 0.186183 0.0550017 0.0793086 
1 1 0.220456 0.0437273 0.0898267 
1 1 0.261864 0.040447 0.0948569 
1 1 0.284569 0.0369562 0.0883057 
1 1 0.289857 0.0640471 0.0892796 
1 1 0.31766 0.0366894 0.0793144 
1 1 0.342112 0.0696739 0.0852077 
1 1 0.390402 0.0382619 0.0852431 
1 1 0.377955 0.0614235 0.0799408 
1 1 0.409422 0.0529178 0.0951754 
1 1 0.426932 0.0401891 0.0750044 
1 1 0.419598 0.063644 0.0656272 
1 1 0.458154 0.0443376 0.0764811 
1 1 0.453067 0.0704458 0.081651 
1 1 0.479989 0.0373623 0.0677178 
1 1 0.498889 0.0577191 0.0527217 
1 1 0.508709 0.0605333 0.0836247 
1 1 0.555234 0.0642372 0.0668053 
1 1 0.542854 0.0362135 0.0759639 
1 1 0.566384 0.0370918 0.0747249 
1 1 0.568835 0.0668838 0.0927763 
1 1 0.536207 0.0702374 0.0888003 
1 1 0.612008 0.066231 0.0774423 
1 1 0.0920391 0.105877 0.084741 
1 1 0.150874 0.0834532 0.0920711 
1 1 0.158992 0.0832898 0.0614755 
1 1 0.184995 0.0780238 0.0608886 
1 1 0.183881 0.104569 0.0645205 
1 1 0.284335 0.0874431 0.0726608 
1 1 0.42182 0.0948216 0.0759708 
1 1 0.398873 0.0741569 0.0807467 
1 1 0.396723 0.106503 0.0941477 
1 1 0.448812 0.0936636 0.0708333 
1 1 0.478429 0.0792661 0.0860089 
1 1 0.498552 0.106892 0.0925762 
1 1 0.527847 0.0743467 0.0529872 
1 1 0.519933 0.0931067 0.0883024 
1 1 0.503284 0.084823 0.0612745 
1 1 0.59039 0.0765317 0.0666345 
1 1 0.583017 0.101398 0.0779965 
1 1 0.62275 0.0849847 0.0923504 
1 1 0.673864 0.100433 0.0925568 
1 1 0.010184 0.108751 0.0810442 
1 1 0.0546394 0.118407 0.0728021 
1 1 0.139392 0.126469 0.0763958 
1 1 0.158446 0.124858 0.0538569 
1 1 0.159387 0.11289 0.0864665 
1 1 0.187701 0.132405 0.0872037 
1 1 0.200283 0.133279 0.0564133 
1 1 0.202065 0.110581 0.0860214 
1 1 0.363175 0.138452 0.064443 
1 1 0.376858 0.11888 0.0753274 
1 1 0.376665 0.142335 0.0909344 
1 1 0.421762 0.122538 0.053873 
1 1 0.410685 0.131164 0.0882665 
1 1 0.445354 0.124572 0.0646557 
1 1 0.444904 0.138529 0.0934484 
1 1 0.466359 0.140818 0.0609886 
1 1 0.486162 0.131483 0.0779598 
1 1 0.507544 0.108181 0.061183 
1 1 0.519541 0.126281 0.0752915 
1 1 0.573215 0.130247 0.0807283 
1 1 0.599033 0.126706 0.0716742 
1 1 0.628771 0.136781 0.065534 
1 1 0.623079 0.115881 0.0900495 
1 1 0.611037 0.107331 0.0604925 
1 1 0.653781 0.139432 0.0827261 
1 1 0.655111 0.115166 0.079454 
1 1 0.678854 0.134573 0.0911234 
1 1 0.0530243 0.151552 0.0649748 
1 1 0.0668182 0.154527 0.0933384 
1 1 0.0456479 0.172211 0.0773485 
1 1 0.127388 0.176808 0.0481924 
1 1 0.136826 0.175129 0.0863349 
1 1 0.175328 0.144214 0.0563208 
1 1 0.14297 0.150682 0.0760245 
1 1 0.159773 0.167511 0.0528765 
1 1 0.206285 0.154621 0.0720614 
1 1 0.243135 0.147593 0.0714947 
1 1 0.228102 0.16667 0.078548 
1 1 0.255876 0.170508 0.0814264 
1 1 0.324121 0.161632 0.0795239 
1 1 0.350764 0.164862 0.0701122 
1 1 0.383483 0.156802 0.0666535 
1 1 0.417044 0.148437 0.0642757 
1 1 0.401996 0.156118 0.0904963 
1 1 0.44166 0.157514 0.0685873 
1 1 0.487739 0.157162 0.0696194 
1 1 0.510813 0.152644 0.084159 
1 1 0.559313 0.155978 0.0787485 
1 1 0.61766 0.158575 0.0702833 
1 1 0.642503 0.173706 0.0882507 
1 1 0.648065 0.15662 0.0642939 
1 1 0.776257 0.178305 0.0905245 
1 1 0.034409 0.19537 0.0877927 
1 1 0.0109535 0.211121 0.093073 
1 1 0.0679668 0.209217 0.0879591 
1 1 0.109258 0.186955 0.0767009 
1 1 0.133295 0.200982 0.0613985 
1 1 0.141507 0.206712 0.091843 
1 1 0.167948 0.207002 0.0760446 
1 1 0.197005 0.206077 0.0665885 
1 1 0.182064 0.182423 0.0738407 
1 1 0.23765 0.19524 0.081749 
1 1 0.285363 0.211648 0.0728186 
1 1 0.25513 0.212376 0.0834791 
1 1 0.313831 0.195464 0.0724034 
1 1 0.338921 0.186583 0.0717685 
1 1 0.335443 0.211936 0.053356 
1 1 0.351071 0.213888 0.0806976 
1 1 0.359182 0.198627 0.0502446 
1 1 0.372267 0.1898 0.0757892 
1 1 0.397785 0.201578 0.072602 
1 1 0.414296 0.179186 0.0867107 
1 1 0.47612 0.21164 0.0802107 
1 1 0.628144 0.179783 0.0600805 
1 1 0.638429 0.212056 0.0714376 
1 1 0.614941 0.184095 0.0896861 
1 1 0.614376 0.209326 0.0743753 
1 1 0.670368 0.184988 0.0950471 
1 1 0.653668 0.192453 0.0709288 
1 1 0.998848 0.186584 0.0709896 
1 1 0.0172272 0.24002 0.0723725 
1 1 0.026754 0.220754 0.0598558 
1 1 0.0589244 0.247359 0.0599371 
1 1 0.0443508 0.232008 0.077706 
1 1 0.0685995 0.215862 0.0551064 
1 1 0.0736989 0.233431 0.0844445 
1 1 0.124165 0.230636 0.0756994 
1 1 0.159241 0.230301 0.0724324 
1 1 0.191799 0.223068 0.088534 
1 1 0.206075 0.242252 0.0670688 
1 1 0.181361 0.236825 0.0617658 
1 1 0.225398 0.224647 0.0838842 
1 1 0.243528 0.240256 0.082724 
1 1 0.264432 0.22835 0.0601356 
1 1 0.30671 0.217007 0.0582273 
1 1 0.309775 0.246462 0.0698399 
1 1 0.354871 0.247309 0.0677411 
1 1 0.333229 0.235576 0.0759464 
1 1 0.375081 0.215145 0.0719952 
1 1 0.377821 0.240128 0.0841823 
1 1 0.463163 0.231869 0.092895 
1 1 0.601065 0.226994 0.09273 
1 1 0.625615 0.243883 0.0949951 
1 1 0.646747 0.239079 0.0794785 
1 1 0.779557 0.221914 0.0849282 
1 1 0.843592 0.231152 0.08836 
1 1 0.947792 0.238161 0.081787 
1 1 0.999055 0.245951 0.0933356 
1 1 0.0340662 0.262371 0.0704813 
1 1 0.0624555 0.276867 0.0936615 
1 1 0.0809655 0.262571 0.0709909 
1 1 0.127556 0.283279 0.0727995 
1 1 0.138759 0.250211 0.0883043 
1 1 0.171811 0.259269 0.0574944 
1 1 0.196922 0.269042 0.0629453 
1 1 0.199849 0.252713 0.0950865 
1 1 0.182256 0.269849 0.0950389 
1 1 0.244291 0.285705 0.0582294 
1 1 0.226233 0.25705 0.0739357 
1 1 0.261425 0.253119 0.0690232 
1 1 0.273651 0.277507 0.0845351 
1 1 0.34614 0.262138 0.0950862 
1 1 0.395666 0.259962 0.0801184 
1 1 0.447041 0.280508 0.0698096 
1 1 0.495652 0.256115 0.0768456 
1 1 0.554858 0.261002 0.085672 
1 1 0.570839 0.283095 0.0776437 
1 1 0.580017 0.258555 0.0701139 
1 1 0.712327 0.254062 0.0890172 
1 1 0.986747 0.265896 0.0880242 
1 1 0.086768 0.288004 0.0661285 
1 1 0.107655 0.303227 0.0740064 
1 1 0.141635 0.299753 0.0922088 
1 1 0.149851 0.306284 0.0621693 
1 1 0.174455 0.310776 0.0543198 
1 1 0.16708 0.293053 0.0871974 
1 1 0.200548 0.293469 0.070687 
1 1 0.209757 0.31025 0.0922894 
1 1 0.224495 0.286416 0.090316 
1 1 0.223344 0.305468 0.0638304 
1 1 0.41196 0.292464 0.0558258 
1 1 0.410351 0.314313 0.0786787 
1 1 0.417636 0.290362 0.0876655 
1 1 0.469477 0.317742 0.0537555 
1 1 0.473065 0.29114 0.0730553 
1 1 0.485068 0.319022 0.0808269 
1 1 0.526161 0.309692 0.0872577 
1 1 0.606054 0.314858 0.0907501 
1 1 0.0685156 0.356105 0.0938824 
1 1 0.0676701 0.329506 0.0892498 
1 1 0.0952633 0.324039 0.063598 
1 1 0.114827 0.347887 0.0877961 
1 1 0.1613 0.331596 0.056614 
1 1 0.144793 0.349401 0.061306 
1 1 0.151813 0.333833 0.0851148 
1 1 0.207588 0.336459 0.0941792 
1 1 0.231173 0.327435 0.0802481 
1 1 0.277641 0.356602 0.0892349 
1 1 0.305523 0.331502 0.0797098 
1 1 0.310909 0.35472 0.0756159 
1 1 0.403505 0.341636 0.0861584 
1 1 0.454066 0.338393 0.0536957 
1 1 0.438038 0.34368 0.07993 
1 1 0.498086 0.342344 0.0860447 
1 1 0.522195 0.341429 0.0931001 
1 1 0.0136155 0.389425 0.075564 
1 1 0.00192808 0.369103 0.0575426 
1 1 0.0789953 0.377817 0.09046 
1 1 0.135991 0.373861 0.0556063 
1 1 0.162511 0.389187 0.0927472 
1 1 0.161274 0.36849 0.0590205 
1 1 0.150683 0.362331 0.0922319 
1 1 0.175197 0.390145 0.0636556 
1 1 0.186813 0.367374 0.0566151 
1 1 0.211535 0.357688 0.0773467 
1 1 0.192969 0.370521 0.0924191 
1 1 0.257489 0.372712 0.0838939 
1 1 0.314573 0.377281 0.085829 
1 1 0.348996 0.36117 0.0922183 
1 1 0.363515 0.387718 0.0923183 
1 1 0.414296 0.363649 0.074532 
1 1 0.445463 0.371226 0.0886631 
1 1 0.464038 0.386806 0.0819928 
1 1 0.496912 0.389074 0.071049 
1 1 0.465394 0.369109 0.0501136 
1 1 0.479977 0.365337 0.0770008 
1 1 0.682502 0.380362 0.0606436 
1 1 0.977974 0.366948 0.075294 
1 1 0.00191012 0.419923 0.064378 
1 1 0.0280037 0.409071 0.0775648 
1 1 0.160959 0.424062 0.0889158 
1 1 0.181628 0.410818 0.0895203 
1 1 0.202784 0.408576 0.0645027 
1 1 0.223898 0.399921 0.0848948 
1 1 0.269969 0.393274 0.076495 
1 1 0.293197 0.416306 0.078441 
1 1 0.415224 0.427598 0.0487295 
1 1 0.402053 0.424475 0.0777712 
1 1 0.427247 0.424913 0.0826245 
1 1 0.427268 0.399464 0.0721325 
1 1 0.44908 0.414451 0.0854916 
1 1 0.475032 0.39504 0.0516653 
1 1 0.473534 0.408693 0.0921578 
1 1 0.493537 0.415028 0.0769751 
1 1 0.51911 0.405454 0.0689968 
1 1 0.534798 0.39819 0.0918895 
1 1 0.560055 0.397417 0.0906674 
1 1 0.544061 0.414225 0.0652691 
1 1 0.639603 0.414655 0.0650996 
1 1 0.653461 0.396287 0.0762627 
1 1 0.659177 0.416954 0.0944647 
1 1 0.679916 0.400106 0.0894863 
1 1 0.707058 0.423774 0.0823902 
1 1 0.685502 0.420917 0.0651397 
1 1 0.733719 0.399044 0.0826304 
1 1 0.817033 0.427892 0.0924678 
1 1 0.985963 0.401311 0.0712425 
1 1 0.000402649 0.456171 0.0676221 
1 1 0.161923 0.450683 0.0805982 
1 1 0.206861 0.430152 0.0864197 
1 1 0.18571 0.442428 0.0769229 
1 1 0.23708 0.448631 0.0719625 
1 1 0.250283 0.429289 0.0821318 
1 1 0.310708 0.460556 0.0805118 
1 1 0.355865 0.46397 0.0605749 
1 1 0.327223 0.441886 0.0771703 
1 1 0.351708 0.441433 0.0687845 
1 1 0.376444 0.445996 0.0765662 
1 1 0.396092 0.442972 0.0552126 
1 1 0.433518 0.449458 0.0561102 
1 1 0.445751 0.440736 0.0921549 
1 1 0.468485 0.460319 0.0909856 
1 1 0.466065 0.45406 0.0576338 
1 1 0.474912 0.429088 0.0595127 
1 1 0.471038 0.434717 0.0911477 
1 1 0.491708 0.44845 0.0745524 
1 1 0.513188 0.457633 0.0639448 
1 1 0.51317 0.42875 0.0929178 
1 1 0.537698 0.43755 0.0720132 
1 1 0.536006 0.459746 0.0863047 
1 1 0.563975 0.457605 0.0804748 
1 1 0.731677 0.430226 0.077444 
1 1 0.838915 0.456344 0.059814 
1 1 0.852319 0.434257 0.0757407 
1 1 0.860679 0.451277 0.0479429 
1 1 0.932797 0.461348 0.0745628 
1 1 0.996175 0.436677 0.0891705 
1 1 0.978533 0.444461 0.065874 
1 1 0.981537 0.462484 0.08876 
1 1 0.0263987 0.471913 0.0788462 
1 1 0.00754643 0.48545 0.0852617 
1 1 0.0493856 0.469469 0.0903587 
1 1 0.0457816 0.491977 0.0660341 
1 1 0.161148 0.491328 0.0796681 
1 1 0.18618 0.470603 0.0686998 
1 1 0.193273 0.493856 0.056974 
1 1 0.18334 0.492767 0.0948699 
1 1 0.20675 0.499393 0.0844049 
1 1 0.242455 0.474674 0.075979 
1 1 0.218469 0.477625 0.0722737 
1 1 0.370927 0.488481 0.076428 
1 1 0.419335 0.465161 0.0837246 
1 1 0.43324 0.492482 0.0668472 
1 1 0.451612 0.476236 0.0733452 
1 1 0.478577 0.493814 0.0516774 
1 1 0.486112 0.480482 0.0792434 
1 1 0.508277 0.493748 0.0538021 
1 1 0.519956 0.480701 0.075214 
1 1 0.53434 0.490517 0.0486298 
1 1 0.564404 0.47998 0.0608237 
1 1 0.543525 0.465438 0.0568304 
1 1 0.544091 0.488504 0.0811427 
1 1 0.593109 0.474866 0.089123 
1 1 0.591781 0.491653 0.0616945 
1 1 0.667752 0.487099 0.0949601 
1 1 0.692289 0.480122 0.0940738 
1 1 0.719069 0.468956 0.0890924 
1 1 0.773817 0.476326 0.0913643 
1 1 0.814433 0.482911 0.0772429 
1 1 0.792265 0.489516 0.0771535 
1 1 0.841856 0.488234 0.0599134 
1 1 0.843073 0.474088 0.0918869 
1 1 0.877222 0.494955 0.0673818 
1 1 0.921153 0.488769 0.0697012 
1 1 0.906957 0.467019 0.0764995 
1 1 0.898714 0.495259 0.0861072 
1 1 0.960199 0.473932 0.0743637 
1 1 0.97779 0.467592 0.0538286 
1 1 0.025742 0.525215 0.0845209 
1 1 0.037542 0.503824 0.0920634 
1 1 0.0523768 0.530582 0.0577575 
1 1 0.078868 0.505763 0.0663659 
1 1 0.0785365 0.526413 0.0839379 
1 1 0.139618 0.515032 0.0634866 
1 1 0.118487 0.507224 0.0797527 
1 1 0.253793 0.525231 0.0851271 
1 1 0.25335 0.500707 0.0764233 
1 1 0.355268 0.531926 0.0937409 
1 1 0.407765 0.52054 0.0942224 
1 1 0.455736 0.530093 0.0848414 
1 1 0.462505 0.503786 0.0709901 
1 1 0.435155 0.525 0.0668905 
1 1 0.490584 0.507148 0.0809227 
1 1 0.522566 0.512677 0.0651258 
1 1 0.501086 0.533173 0.0726331 
1 1 0.576206 0.503708 0.0836705 
1 1 0.662683 0.533108 0.0861489 
1 1 0.690765 0.533622 0.0606243 
1 1 0.747986 0.515117 0.0902962 
1 1 0.721473 0.52756 0.0875537 
1 1 0.776264 0.518952 0.0539046 
1 1 0.79939 0.519032 0.0526771 
1 1 0.788258 0.519444 0.0869849 
1 1 0.826967 0.523233 0.0649093 
1 1 0.832797 0.503979 0.083031 
1 1 0.859198 0.512792 0.0895804 
1 1 0.883577 0.531741 0.0832975 
1 1 0.910037 0.523859 0.0761065 
1 1 0.928223 0.535635 0.0580741 
1 1 0.940498 0.507578 0.0832295 
1 1 0.953424 0.521605 0.061491 
1 1 0.994394 0.535289 0.0832223 
1 1 0.0687785 0.567786 0.0936206 
1 1 0.0682619 0.54858 0.0679994 
1 1 0.0479745 0.561957 0.0651058 
1 1 0.121565 0.568867 0.0644034 
1 1 0.126886 0.548561 0.0845509 
1 1 0.155156 0.538192 0.0563423 
1 1 0.16524 0.560473 0.0636441 
1 1 0.179519 0.545865 0.0844263 
1 1 0.203584 0.546184 0.0728986 
1 1 0.232249 0.559175 0.0602293 
1 1 0.227664 0.539725 0.0818709 
1 1 0.259719 0.565655 0.0870656 
1 1 0.408318 0.548527 0.0796409 
1 1 0.418257 0.540533 0.0525759 
1 1 0.43252 0.563783 0.0863608 
1 1 0.523805 0.539926 0.0730243 
1 1 0.628138 0.562654 0.0757254 
1 1 0.628523 0.537665 0.0800059 
1 1 0.654296 0.554845 0.0884346 
1 1 0.706999 0.549571 0.047662 
1 1 0.684702 0.557725 0.0627055 
1 1 0.733996 0.564259 0.0590956 
1 1 0.732418 0.539831 0.0591366 
1 1 0.715996 0.552638 0.077738 
1 1 0.784494 0.555536 0.0478384 
1 1 0.756868 0.555776 0.0546516 
1 1 0.772204 0.542553 0.0820379 
1 1 0.804107 0.56439 0.0853145 
1 1 0.801966 0.542431 0.0728481 
1 1 0.84567 0.558994 0.0938366 
1 1 0.862053 0.542263 0.0711975 
1 1 0.877098 0.567254 0.0648383 
1 1 0.915298 0.562105 0.0601501 
1 1 0.898066 0.541914 0.0603149 
1 1 0.895408 0.564338 0.0850229 
1 1 0.93472 0.569102 0.0841095 
1 1 0.959538 0.546789 0.0703024 
1 1 0.973328 0.566616 0.0747078 
1 1 0.00689017 0.599086 0.0660377 
1 1 0.00858722 0.581401 0.090439 
1 1 0.056319 0.592112 0.0747823 
1 1 0.075932 0.57384 0.0639623 
1 1 0.145433 0.573329 0.0785177 
1 1 0.196 0.573355 0.0547318 
1 1 0.181054 0.585346 0.0863413 
1 1 0.210148 0.588851 0.0766225 
1 1 0.245079 0.606979 0.0720106 
1 1 0.234151 0.585635 0.0704771 
1 1 0.26122 0.591802 0.0803268 
1 1 0.3117 0.600966 0.086524 
1 1 0.412708 0.579872 0.0872835 
1 1 0.621115 0.585309 0.086774 
1 1 0.647999 0.574441 0.0637107 
1 1 0.66594 0.584048 0.0850004 
1 1 0.64349 0.600313 0.0888285 
1 1 0.718148 0.582806 0.0857863 
1 1 0.746307 0.594645 0.0498147 
1 1 0.776335 0.573024 0.0856656 
1 1 0.76876 0.577956 0.051331 
1 1 0.769213 0.605471 0.0515702 
1 1 0.752971 0.601004 0.0813814 
1 1 0.794068 0.585385 0.0567869 
1 1 0.801071 0.606484 0.0743317 
1 1 0.855493 0.576904 0.0580405 
1 1 0.850285 0.604691 0.0480017 
1 1 0.827409 0.597401 0.0740546 
1 1 0.874914 0.59781 0.0683102 
1 1 0.895446 0.586109 0.0484503 
1 1 0.906771 0.587997 0.0865067 
1 1 0.954563 0.58697 0.0924557 
1 1 0.966398 0.603907 0.0726955 
1 1 0.00325529 0.638233 0.0633099 
1 1 0.0198557 0.620136 0.0667921 
1 1 0.0148788 0.641002 0.0936404 
1 1 0.0611307 0.613376 0.0597474 
1 1 0.0471342 0.637566 0.0745437 
1 1 0.0850731 0.610521 0.0713623 
1 1 0.0728955 0.631729 0.0832075 
1 1 0.128652 0.634773 0.091854 
1 1 0.15056 0.632821 0.0794548 
1 1 0.165917 0.613299 0.0847721 
1 1 0.211543 0.6271 0.0797047 
1 1 0.245222 0.632902 0.0884924 
1 1 0.265908 0.623155 0.076393 
1 1 0.292705 0.62078 0.0866954 
1 1 0.320595 0.621755 0.0950175 
1 1 0.373138 0.615217 0.0769589 
1 1 0.436233 0.624162 0.0835673 
1 1 0.492054 0.640134 0.0906729 
1 1 0.558736 0.620138 0.0918035 
1 1 0.783143 0.622041 0.0787996 
1 1 0.807031 0.631749 0.0617464 
1 1 0.81124 0.632441 0.0934044 
1 1 0.83202 0.620523 0.088782 
1 1 0.829379 0.628349 0.048739 
1 1 0.861455 0.623707 0.0670311 
1 1 0.883343 0.635804 0.0700986 
1 1 0.894123 0.610156 0.0877367 
1 1 0.946177 0.642431 0.081278 
1 1 0.962891 0.626407 0.0504886 
1 1 0.968417 0.628705 0.086548 
1 1 0.992923 0.618557 0.088239 
1 1 0.033375 0.670145 0.0856555 
1 1 0.0558596 0.660767 0.0767798 
1 1 0.0998103 0.645703 0.0862462 
1 1 0.196597 0.675984 0.080047 
1 1 0.189016 0.652835 0.0913662 
1 1 0.26413 0.654943 0.0689875 
1 1 0.286614 0.644705 0.0687322 
1 1 0.306319 0.659627 0.0705238 
1 1 0.329267 0.66294 0.066957 
1 1 0.353967 0.655445 0.0893469 
1 1 0.348038 0.677513 0.0737596 
1 1 0.451588 0.643229 0.0796941 
1 1 0.453743 0.667161 0.0857978 
1 1 0.530508 0.675138 0.0606999 
1 1 0.509649 0.678127 0.0818081 
1 1 0.535857 0.655028 0.0783024 
1 1 0.733484 0.661243 0.0941642 
1 1 0.75743 0.651326 0.0913438 
1 1 0.768617 0.668678 0.0594773 
1 1 0.787447 0.6515 0.0739166 
1 1 0.810164 0.664186 0.0786703 
1 1 0.82737 0.65068 0.0646361 
1 1 0.832649 0.67521 0.0827031 
1 1 0.863689 0.645689 0.090774 
1 1 0.88031 0.661739 0.0783967 
1 1 0.900541 0.673666 0.0646453 
1 1 0.902951 0.649433 0.0626589 
1 1 0.91965 0.650782 0.0872492 
1 1 0.942368 0.672195 0.0643584 
1 1 0.990083 0.664467 0.078332 
1 1 0.970227 0.65289 0.0592945 
1 1 0.0201274 0.700596 0.0897408 
1 1 0.082137 0.684749 0.0865794 
1 1 0.286643 0.678914 0.0841905 
1 1 0.347597 0.697021 0.0518462 
1 1 0.33108 0.710697 0.0817734 
1 1 0.36831 0.69465 0.0925862 
1 1 0.50818 0.708704 0.0873805 
1 1 0.574681 0.698082 0.094935 
1 1 0.673193 0.698745 0.0886183 
1 1 0.701902 0.703086 0.0904505 
1 1 0.782932 0.688153 0.0588573 
1 1 0.799109 0.700602 0.0796978 
1 1 0.854677 0.680934 0.0673738 
1 1 0.8272 0.70178 0.0855708 
1 1 0.888852 0.681355 0.0946108 
1 1 0.877165 0.678933 0.0550966 
1 1 0.921205 0.689392 0.0737863 
1 1 0.912204 0.711449 0.069583 
1 1 0.0327426 0.71754 0.0747435 
1 1 0.0194908 0.744967 0.0816664 
1 1 0.0581839 0.721094 0.0659612 
1 1 0.0845352 0.731854 0.0933177 
1 1 0.0881999 0.746224 0.0636457 
1 1 0.136824 0.734815 0.0482856 
1 1 0.13507 0.744134 0.0796271 
1 1 0.145317 0.722013 0.0846982 
1 1 0.161355 0.743139 0.0746155 
1 1 0.320868 0.73947 0.0511526 
1 1 0.333042 0.717574 0.0481733 
1 1 0.337382 0.740995 0.0759729 
1 1 0.494867 0.725558 0.0733048 
1 1 0.474809 0.739192 0.0939874 
1 1 0.675361 0.716193 0.0630642 
1 1 0.655874 0.742031 0.084892 
1 1 0.679331 0.734717 0.0909322 
1 1 0.699761 0.717987 0.0650493 
1 1 0.701576 0.74371 0.0813324 
1 1 0.718616 0.7198 0.0929837 
1 1 0.721659 0.733512 0.064811 
1 1 0.81947 0.747804 0.0916457 
1 1 0.790736 0.724055 0.0851028 
1 1 0.83608 0.72978 0.0477442 
1 1 0.849245 0.742087 0.0937592 
1 1 0.893445 0.731496 0.0551014 
1 1 0.931295 0.729353 0.0920587 
1 1 0.989134 0.747621 0.0727445 
1 1 0.0328912 0.765019 0.0896047 
1 1 0.0031954 0.780604 0.06612 
1 1 0.0568808 0.764628 0.0944828 
1 1 0.0804401 0.756356 0.0912129 
1 1 0.0940645 0.77194 0.0602871 
1 1 0.120901 0.760261 0.0605098 
1 1 0.132389 0.782709 0.0523319 
1 1 0.11001 0.761889 0.0894816 
1 1 0.129054 0.780429 0.0949915 
1 1 0.175069 0.785247 0.0801719 
1 1 0.149184 0.766173 0.0841194 
1 1 0.201491 0.772247 0.0646782 
1 1 0.185439 0.75036 0.0830401 
1 1 0.211352 0.763023 0.0915032 
1 1 0.259657 0.78411 0.0912796 
1 1 0.277548 0.765337 0.0786375 
1 1 0.314097 0.7511 0.0913706 
1 1 0.335835 0.765177 0.0819558 
1 1 0.378592 0.753873 0.0673843 
1 1 0.359063 0.755038 0.0910338 
1 1 0.36239 0.785103 0.0780317 
1 1 0.408637 0.776597 0.0731281 
1 1 0.437671 0.784785 0.0888582 
1 1 0.48913 0.759672 0.0643044 
1 1 0.466756 0.760487 0.0788225 
1 1 0.493554 0.768889 0.094923 
1 1 0.508024 0.780356 0.0635425 
1 1 0.513402 0.756604 0.0764691 
1 1 0.546648 0.763689 0.0788279 
1 1 0.601047 0.785318 0.0942552 
1 1 0.623613 0.762429 0.0848836 
1 1 0.703027 0.763309 0.0542297 
1 1 0.702865 0.782161 0.0744091 
1 1 0.729618 0.763457 0.0781566 
1 1 0.815707 0.771145 0.0939733 
1 1 0.79702 0.754258 0.0837861 
1 1 0.830854 0.753702 0.0643392 
1 1 0.878396 0.76517 0.0505238 
1 1 0.86912 0.751087 0.0758117 
1 1 0.888323 0.780203 0.0721242 
1 1 0.923098 0.751671 0.0585215 
1 1 0.916857 0.777388 0.0673417 
1 1 0.895646 0.751705 0.0743357 
1 1 0.916154 0.752509 0.0925533 
1 1 0.0227524 0.795178 0.0864065 
1 1 0.0597949 0.806247 0.0905077 
1 1 0.0960206 0.814746 0.0612337 
1 1 0.102664 0.798659 0.0895658 
1 1 0.109636 0.796702 0.0490711 
1 1 0.140961 0.796782 0.078233 
1 1 0.1296 0.817137 0.0674301 
1 1 0.171926 0.819378 0.0482844 
1 1 0.178796 0.819846 0.0883037 
1 1 0.210281 0.818318 0.0887153 
1 1 0.226889 0.793593 0.0907754 
1 1 0.284685 0.789238 0.0736659 
1 1 0.308164 0.790101 0.0667256 
1 1 0.356114 0.811523 0.0750003 
1 1 0.379307 0.805188 0.0567854 
1 1 0.382795 0.816199 0.0903206 
1 1 0.394299 0.794158 0.0784885 
1 1 0.41105 0.818688 0.0657316 
1 1 0.438114 0.812623 0.0498913 
1 1 0.448108 0.789988 0.0569923 
1 1 0.435839 0.812194 0.084264 
1 1 0.457233 0.803281 0.0827987 
1 1 0.493384 0.792086 0.0851862 
1 1 0.506715 0.804341 0.0545803 
1 1 0.532967 0.806721 0.0703014 
1 1 0.52394 0.786272 0.090576 
1 1 0.550922 0.787769 0.0756342 
1 1 0.624724 0.790813 0.0770173 
1 1 0.662152 0.793746 0.0824979 
1 1 0.706842 0.815295 0.0654513 
1 1 0.714424 0.793129 0.0510867 
1 1 0.722093 0.792343 0.0930245 
1 1 0.767446 0.802461 0.0676618 
1 1 0.75684 0.816666 0.0923102 
1 1 0.79397 0.788628 0.0845731 
1 1 0.853588 0.810955 0.077152 
1 1 0.886575 0.813322 0.0798684 
1 1 0.905992 0.79419 0.0896158 
1 1 0.894939 0.811749 0.0479127 
1 1 0.930724 0.802463 0.0501032 
1 1 0.93958 0.786183 0.0745861 
1 1 0.932022 0.812568 0.0786276 
1 1 0.95885 0.803637 0.0870995 
1 1 0.979235 0.78751 0.0650302 
1 1 0.993532 0.800479 0.0952359 
1 1 0.109675 0.844253 0.0583107 
1 1 0.111735 0.846278 0.0932998 
1 1 0.133916 0.843053 0.0691949 
1 1 0.153487 0.835212 0.0511023 
1 1 0.16924 0.843744 0.0837607 
1 1 0.150974 0.823288 0.0821508 
1 1 0.184848 0.854613 0.0645542 
1 1 0.196139 0.830267 0.0649224 
1 1 0.384821 0.838651 0.0802611 
1 1 0.460293 0.824539 0.0522484 
1 1 0.432097 0.835767 0.0738674 
1 1 0.48532 0.836649 0.0568349 
1 1 0.47979 0.823849 0.0871047 
1 1 0.489543 0.856519 0.0896745 
1 1 0.528045 0.836761 0.0943668 
1 1 0.535744 0.840917 0.0609988 
1 1 0.554494 0.846913 0.088255 
1 1 0.564703 0.829444 0.067228 
1 1 0.584147 0.846972 0.0653917 
1 1 0.632759 0.846049 0.06936 
1 1 0.717082 0.836743 0.0865623 
1 1 0.737577 0.824625 0.0723036 
1 1 0.740687 0.852436 0.0773239 
1 1 0.778839 0.827081 0.0803833 
1 1 0.80078 0.84803 0.0686405 
1 1 0.807842 0.827626 0.0877526 
1 1 0.877049 0.845792 0.0792002 
1 1 0.898753 0.856808 0.0680839 
1 1 0.955021 0.822529 0.066213 
1 1 0.967327 0.842467 0.0743912 
1 1 0.0693604 0.872042 0.0859056 
1 1 0.112538 0.888697 0.0889101 
1 1 0.127234 0.870252 0.0750557 
1 1 0.156746 0.863216 0.0675277 
1 1 0.177606 0.873826 0.0912506 
1 1 0.151054 0.87771 0.0926148 
1 1 0.169387 0.883007 0.0608228 
1 1 0.353514 0.875923 0.0731286 
1 1 0.372988 0.861663 0.0790158 
1 1 0.414107 0.879914 0.0754184 
1 1 0.398037 0.861352 0.0774651 
1 1 0.446453 0.867202 0.0922265 
1 1 0.471272 0.858933 0.0611358 
1 1 0.480246 0.884037 0.0926154 
1 1 0.497734 0.875982 0.0680618 
1 1 0.52711 0.862024 0.0846 
1 1 0.545141 0.863523 0.0551202 
1 1 0.561527 0.879019 0.0819586 
1 1 0.591608 0.870327 0.0811458 
1 1 0.638067 0.870434 0.0568991 
1 1 0.6155 0.868935 0.0756348 
1 1 0.638013 0.866458 0.0921871 
1 1 0.682531 0.87091 0.0857964 
1 1 0.709362 0.882066 0.0738343 
1 1 0.780232 0.858281 0.0805023 
1 1 0.887064 0.877773 0.0752006 
1 1 0.91512 0.880089 0.0724652 
1 1 0.939534 0.876534 0.0831047 
1 1 0.986904 0.875412 0.0863029 
1 1 0.96474 0.866864 0.0855018 
1 1 0.160977 0.908965 0.0901728 
1 1 0.181989 0.924615 0.0833692 
1 1 0.243178 0.912462 0.0855016 
1 1 0.352796 0.898986 0.0557157 
1 1 0.354146 0.903741 0.0887152 
1 1 0.378106 0.89472 0.0863968 
1 1 0.400547 0.911862 0.0939943 
1 1 0.427345 0.926346 0.0791645 
1 1 0.506068 0.900701 0.0628805 
1 1 0.528003 0.924063 0.0750495 
1 1 0.552692 0.904866 0.0708089 
1 1 0.574087 0.915672 0.0607467 
1 1 0.583031 0.896688 0.0788496 
1 1 0.598686 0.920898 0.0675121 
1 1 0.640948 0.89439 0.0642099 
1 1 0.617055 0.900834 0.0684806 
1 1 0.661919 0.901158 0.0819517 
1 1 0.645678 0.917637 0.0722316 
1 1 0.671443 0.9214 0.0672982 
1 1 0.71175 0.924452 0.0872128 
1 1 0.71686 0.92374 0.0530041 
1 1 0.738479 0.918616 0.0924236 
1 1 0.729149 0.898006 0.0766179 
1 1 0.776889 0.923897 0.0661452 
1 1 0.92742 0.897883 0.0573402 
1 1 0.898425 0.899614 0.0799971 
1 1 0.947228 0.917958 0.087366 
1 1 0.965219 0.90328 0.0741662 
1 1 0.00531512 0.949534 0.088548 
1 1 0.0689107 0.935534 0.0884152 
1 1 0.150158 0.960597 0.0946047 
1 1 0.204253 0.933668 0.0937348 
1 1 0.327207 0.934972 0.0741367 
1 1 0.416725 0.948052 0.0856671 
1 1 0.44972 0.934851 0.0882169 
1 1 0.500932 0.946249 0.0699806 
1 1 0.560562 0.935197 0.0489668 
1 1 0.549045 0.960377 0.079858 
1 1 0.559719 0.937656 0.0855347 
1 1 0.60228 0.953066 0.0511982 
1 1 0.577508 0.959046 0.0616748 
1 1 0.598439 0.945131 0.0829678 
1 1 0.622027 0.934072 0.0676396 
1 1 0.641297 0.942418 0.0923736 
1 1 0.622949 0.959691 0.08181 
1 1 0.656593 0.938673 0.0501073 
1 1 0.684661 0.939041 0.0850743 
1 1 0.710243 0.94838 0.0675156 
1 1 0.745647 0.939245 0.0744451 
1 1 0.731765 0.961288 0.0726144 
1 1 0.773214 0.949526 0.0714806 
1 1 0.754987 0.959277 0.0928385 
1 1 0.984014 0.932096 0.0831056 
1 1 0.0338101 0.980474 0.0764874 
1 1 0.0097063 0.999851 0.0949045 
1 1 0.0218119 0.965382 0.053266 
1 1 0.00268334 0.979894 0.0682165 
1 1 0.0737106 0.976489 0.0689371 
1 1 0.2329 0.99849 0.081413 
1 1 0.305885 0.990349 0.08102 
1 1 0.32803 0.976796 0.0875988 
1 1 0.367485 0.991501 0.0802511 
1 1 0.410746 0.986151 0.0777319 
1 1 0.426185 0.970877 0.0929617 
1 1 0.43913 0.988342 0.0631506 
1 1 0.487471 0.99157 0.0848121 
1 1 0.494703 0.967314 0.0816994 
1 1 0.511313 0.993858 0.0835647 
1 1 0.534685 0.998808 0.0812464 
1 1 0.55571 0.984743 0.0813069 
1 1 0.637385 0.999513 0.0919776 
1 1 0.642887 0.976358 0.0770437 
1 1 0.685175 0.970306 0.0910735 
1 1 0.694548 0.966069 0.05912 
1 1 0.963284 0.988018 0.0738057 
1 1 0.0021104 0.0280562 0.125362 
1 1 0.0334574 0.0297359 0.10577 
1 1 0.0247458 0.0249225 0.13655 
1 1 0.0160255 0.000941819 0.136845 
1 1 0.0379563 0.00807448 0.117407 
1 1 0.0647787 0.0222666 0.103628 
1 1 0.0726084 0.0131807 0.134408 
1 1 0.0986754 0.0178811 0.134937 
1 1 0.118679 0.0303493 0.125521 
1 1 0.13483 0.00559104 0.126684 
1 1 0.16893 0.0202383 0.131095 
1 1 0.16174 0.0149013 0.0967872 
1 1 0.197983 0.016072 0.115289 
1 1 0.266368 0.0264927 0.122019 
1 1 0.287574 0.0187363 0.130909 
1 1 0.318941 0.0226786 0.106176 
1 1 0.350255 0.0227338 0.123087 
1 1 0.388279 0.00657244 0.10006 
1 1 0.377476 0.0232765 0.1297 
1 1 0.397952 0.0348266 0.117148 
1 1 0.399419 0.0111857 0.129667 
1 1 0.428391 0.00828671 0.142701 
1 1 0.415459 0.00249447 0.109911 
1 1 0.446926 0.002827 0.120595 
1 1 0.445849 0.0276235 0.0973431 
1 1 0.483601 0.0245722 0.102572 
1 1 0.468749 0.0338953 0.127373 
1 1 0.489638 0.0171726 0.13772 
1 1 0.530823 0.0208383 0.125992 
1 1 0.509754 0.011425 0.118348 
1 1 0.560609 0.0346768 0.107482 
1 1 0.584167 0.00919065 0.103868 
1 1 0.575117 0.0342235 0.141053 
1 1 0.602861 0.023572 0.10556 
1 1 0.625484 0.0138309 0.112474 
1 1 0.615521 0.0106203 0.141863 
1 1 0.655492 0.0215309 0.122404 
1 1 0.679896 0.00820494 0.134178 
1 1 0.686973 0.0147412 0.0961242 
1 1 0.710859 0.0200834 0.109622 
1 1 0.702225 0.0264589 0.139676 
1 1 0.736748 0.00820289 0.118516 
1 1 0.790736 0.028405 0.141807 
1 1 0.85278 0.0178438 0.130058 
1 1 0.885315 0.0154175 0.117159 
1 1 0.946147 0.00802412 0.123613 
1 1 0.966931 0.0157075 0.102808 