LAMMPS (3 Mar 2020)
  using 8 OpenMP thread(s) per MPI task
# 3-d LJ free film simulation

dimension	3
boundary	p p p
variable    T equal 1
atom_style	bond
special_bonds   fene
read_data   polymer-gamma-equ
  orthogonal box = (-0 -0 -4.8) to (40 40 24.6)
  1 by 1 by 1 MPI processor grid
  reading atoms ...
  32000 atoms
  reading velocities ...
  32000 velocities
  scanning bonds ...
  1 = max bonds/atom
  reading bonds ...
  28000 bonds
  2 = max # of 1-2 neighbors
  2 = max # of special neighbors
  special bonds CPU = 0.00610709 secs
  read_data CPU = 0.156703 secs


neighbor	0.3 bin
neigh_modify	every 1 delay 0 check yes


mass		1 1.0



# LJ potentials

bond_style  fene
#bond_coeff 	1 10.2478 1.4 1 1
bond_coeff	1 12.2554 1.4 1 1

pair_style	lj/cut 2.5
pair_coeff	1 1 1.0 1.0 2.5

#min_style 	fire
#min_modify 	dmax 0.001
#minimize 	1.0e-5 1.0e-7 200 10000


# initial velocities

compute	     mobile all temp
velocity     all create $T 482748 temp mobile
velocity     all create 1 482748 temp mobile

fix	         1 all nvt temp $T $T 0.3
fix	         1 all nvt temp 1 $T 0.3
fix	         1 all nvt temp 1 1 0.3
fix_modify   1 temp mobile



compute     my_pres all pressure thermo_temp
variable	my_surften equal lz*(c_my_pres[3]-(c_my_pres[1]+c_my_pres[2])/2.0)/2
variable    my_pressure equal -(c_my_pres[1]+c_my_pres[2]+c_my_pres[3])/3
fix          2 all ave/time  100 5000 500000 v_my_surften file polymer-surface-tension.txt mode scalar
#fix          3 all ave/time  100 5000 500000 v_my_pressure file pressure_t0.7c2.5.txt mode scalar

compute    mystr  all stress/atom mobile
compute        p all reduce sum c_mystr[1] c_mystr[2] c_mystr[3]
variable       press equal -(c_p[1]+c_p[2]+c_p[3])/(3*vol)
#fix          4 all ave/time  100 5000 500000 v_press file pressure_t0.7-2c2.5.txt mode scalar

compute    mychu all chunk/atom bin/1d  z lower 0.05 units lattice
 #fix        myave all ave/chunk  100 5000 500000 mychu c_mystr[1] c_mystr[2] c_mystr[3] norm none  file st_.txt
fix        myden all ave/chunk  100 5000  500000 mychu density/number file polymer-den.txt








# Run

timestep	0.003
thermo      500
thermo_style    custom step temp pe ke etotal press v_press vol
thermo_modify	temp mobile




dump 		4 all custom 10000 dump.polymer_den_*.id mass type xs ys zs



run		2000000
Neighbor list info ...
  update every 1 steps, delay 0 steps, check yes
  max neighbors/atom: 2000, page size: 100000
  master list distance cutoff = 2.8
  ghost atom cutoff = 2.8
  binsize = 1.4, bins = 29 29 22
  1 neighbor lists, perpetual/occasional/extra = 1 0 0
  (1) pair lj/cut, perpetual
      attributes: half, newton on
      pair build: half/bin/newton
      stencil: half/bin/3d/newton
      bin: standard
Per MPI rank memory allocation (min/avg/max) = 69.67 | 69.67 | 69.67 Mbytes
Step Temp PotEng KinEng TotEng Press v_press Volume 
       0            1      4.36348    1.4999531    5.8634332 -0.028777653 -0.028777653        47040 
     500    1.0044887     4.365862     1.506686     5.872548  0.015412593  0.015412593        47040 
    1000     1.004117    4.3585472    1.5061284    5.8646757 -0.013613224 -0.013613224        47040 
    1500    1.0062007    4.3666185    1.5092538    5.8758724 -0.043479026 -0.043479026        47040 
    2000    1.0000319    4.3679473     1.500001    5.8679483  0.023664361  0.023664361        47040 
    2500   0.99788088     4.375123    1.4967745    5.8718976  0.071224553  0.071224553        47040 
    3000    1.0041994     4.376536    1.5062521    5.8827881 0.0012301241 0.0012301241        47040 
    3500   0.99993417    4.3703761    1.4998544    5.8702305 -0.0065932908 -0.0065932908        47040 
    4000   0.99731914    4.3743763     1.495932    5.8703083 -0.052498628 -0.052498628        47040 
    4500    1.0029385    4.3761753    1.5043607     5.880536  -0.06361022  -0.06361022        47040 
    5000    1.0067242    4.3832504    1.5100391    5.8932896 -0.066483798 -0.066483798        47040 
    5500    1.0033375    4.3676715    1.5049592    5.8726307 -0.026373108 -0.026373108        47040 
    6000    1.0004254    4.3665215    1.5005912    5.8671127 -0.0097226858 -0.0097226858        47040 
    6500    1.0047602    4.3601039    1.5070932    5.8671971   0.01737051   0.01737051        47040 
    7000   0.99902142    4.3580147    1.4984853       5.8565 -0.038062636 -0.038062636        47040 
    7500     1.010548    4.3582897    1.5157746    5.8740643 -0.072531019 -0.072531019        47040 
    8000    1.0017066    4.3680525     1.502513    5.8705655 -0.010208884 -0.010208884        47040 
    8500    1.0038839    4.3823991    1.5057787    5.8881778  0.013530971  0.013530971        47040 
    9000    1.0052162    4.3686824    1.5077772    5.8764596  -0.05475393  -0.05475393        47040 
    9500    1.0021223    4.3757678    1.5031365    5.8789043 -0.066845621 -0.066845621        47040 
   10000   0.99970262    4.3768662    1.4995071    5.8763732 -0.030786241 -0.030786241        47040 
   10500    1.0015669    4.3784312    1.5023034    5.8807347 -0.013519861 -0.013519861        47040 
   11000    1.0036221    4.3865513    1.5053861    5.8919374 -0.00086575488 -0.00086575488        47040 
   11500   0.99591905    4.3630087    1.4938319    5.8568406 -0.035234182 -0.035234182        47040 
   12000   0.99498502    4.3636978    1.4924309    5.8561287 -0.047248463 -0.047248463        47040 
   12500   0.99627481    4.3650158    1.4943655    5.8593814 0.0010851534 0.0010851534        47040 
   13000    1.0052401    4.3705252    1.5078131    5.8783383 -0.0072937535 -0.0072937535        47040 
   13500    1.0055364    4.3825231    1.5082575    5.8907805 -0.083193323 -0.083193323        47040 
   14000   0.99763169    4.3759795    1.4964008    5.8723803 -0.026503427 -0.026503427        47040 
   14500    1.0049861    4.3597364     1.507432    5.8671684  0.023771469  0.023771469        47040 
   15000   0.99536377    4.3518546     1.492999    5.8448536 -0.054821594 -0.054821594        47040 
   15500    0.9988643    4.3522981    1.4982496    5.8505478 -0.064957492 -0.064957492        47040 
   16000    0.9919089    4.3571197    1.4878169    5.8449366 0.0066901072 0.0066901072        47040 
   16500   0.99848639    4.3695611    1.4976828    5.8672438  -0.05168557  -0.05168557        47040 
   17000   0.99542948    4.3710008    1.4930976    5.8640983 -0.059826522 -0.059826522        47040 
   17500    1.0009087     4.364605    1.5013162    5.8659211 -0.079534894 -0.079534894        47040 
   18000   0.99738469    4.3761848    1.4960303    5.8722151  0.007155945  0.007155945        47040 
   18500    1.0015412    4.3725111    1.5022649    5.8747759 -0.089717263 -0.089717263        47040 
   19000    1.0065696    4.3614744    1.5098072    5.8712816 -0.065785138 -0.065785138        47040 
   19500    1.0028454    4.3674307     1.504221    5.8716518 0.0037772175 0.0037772175        47040 
   20000    1.0043226    4.3711915    1.5064369    5.8776284  0.036756922  0.036756922        47040 
   20500   0.99916622    4.3741852    1.4987025    5.8728877 -0.061576288 -0.061576288        47040 
   21000     1.002954    4.3643392     1.504384    5.8687233  -0.03246344  -0.03246344        47040 
   21500   0.98686738    4.3588408    1.4802548    5.8390956 -0.042425914 -0.042425914        47040 
   22000   0.99860542    4.3716512    1.4978613    5.8695125  0.024643393  0.024643393        47040 
   22500    1.0013805    4.3684597    1.5020238    5.8704836   0.01152394   0.01152394        47040 
   23000     1.000844    4.3670309    1.5012191      5.86825 -0.038827964 -0.038827964        47040 
   23500    1.0009457    4.3615803    1.5013716    5.8629518 -0.065606626 -0.065606626        47040 
   24000    1.0087276    4.3657239    1.5130441     5.878768 0.0073609662 0.0073609662        47040 
   24500    1.0043472    4.3686581    1.5064738    5.8751319 -0.039433455 -0.039433455        47040 
   25000    1.0000705    4.3735894    1.5000589    5.8736483 -0.011712722 -0.011712722        47040 
   25500   0.99516166    4.3703775    1.4926958    5.8630733 -0.016813754 -0.016813754        47040 
   26000   0.99225372    4.3709524    1.4883341    5.8592865  -0.12767614  -0.12767614        47040 
   26500   0.98732544    4.3784453    1.4809419    5.8593872 -0.0051157961 -0.0051157961        47040 
   27000   0.99536779    4.3681175     1.493005    5.8611225 -0.012210009 -0.012210009        47040 
   27500   0.99559005    4.3712428    1.4933384    5.8645813  0.036682699  0.036682699        47040 
   28000     1.000735     4.369363    1.5010555    5.8704185 0.0026559037 0.0026559037        47040 
   28500    1.0017575    4.3582504    1.5025893    5.8608397 -0.064998477 -0.064998477        47040 
   29000    1.0045682    4.3646397    1.5068052     5.871445  0.053749096  0.053749096        47040 
   29500   0.99328059    4.3530574    1.4898743    5.8429317 -0.030565451 -0.030565451        47040 
   30000   0.99579985    4.3692857    1.4936531    5.8629388 -0.036768489 -0.036768489        47040 
   30500   0.99673624    4.3718216    1.4950576    5.8668793 -0.014980813 -0.014980813        47040 
   31000   0.99566849    4.3544321    1.4934561    5.8478881 -0.058722201 -0.058722201        47040 
   31500   0.99480216    4.3633442    1.4921566    5.8555008 -0.041537617 -0.041537617        47040 
   32000   0.99635678    4.3628065    1.4944885     5.857295 0.0036408083 0.0036408083        47040 
   32500   0.99673695    4.3724726    1.4950587    5.8675313 -0.051888446 -0.051888446        47040 
   33000    1.0020561    4.3743562    1.5030372    5.8773934 -0.048995401 -0.048995401        47040 
   33500    1.0029844    4.3778799    1.5044295    5.8823094 -0.011838603 -0.011838603        47040 
   34000    1.0009799    4.3739751    1.5014229     5.875398 -0.0034232463 -0.0034232463        47040 
   34500   0.99849096    4.3726988    1.4976896    5.8703884  -0.02862314  -0.02862314        47040 
   35000   0.99827459    4.3645928    1.4973651    5.8619579  0.015508491  0.015508491        47040 
   35500   0.99702615    4.3650077    1.4954925    5.8605002 -0.021081922 -0.021081922        47040 
   36000     0.998921    4.3634385    1.4983347    5.8617732 -0.008061774 -0.008061774        47040 
   36500   0.99935365    4.3637177    1.4989836    5.8627013 -0.073065757 -0.073065757        47040 
   37000     1.001981    4.3697055    1.5029246      5.87263 -0.067905618 -0.067905618        47040 
   37500     1.005088    4.3731997    1.5075848    5.8807846 -0.045551033 -0.045551033        47040 
   38000   0.99934744    4.3868029    1.4989743    5.8857772 0.0032390962 0.0032390962        47040 
   38500   0.99833122    4.3780836      1.49745    5.8755337 -0.040368669 -0.040368669        47040 
   39000   0.99887958      4.37088    1.4982726    5.8691525  0.018377941  0.018377941        47040 
   39500    1.0036746    4.3621544    1.5054649    5.8676193 -0.043360792 -0.043360792        47040 
   40000    1.0002602    4.3728642    1.5003435    5.8732076 -0.039530972 -0.039530972        47040 
   40500    1.0006018    4.3768589    1.5008558    5.8777148 -0.081575839 -0.081575839        47040 
   41000   0.99488664    4.3745825    1.4922833    5.8668658  0.050144114  0.050144114        47040 
   41500   0.99987715    4.3818089    1.4997689    5.8815778 -0.022297356 -0.022297356        47040 
   42000    1.0003544     4.374148    1.5004846    5.8746326 -0.026180718 -0.026180718        47040 
   42500    1.0008605    4.3702214    1.5012438    5.8714653 -0.070731856 -0.070731856        47040 
   43000   0.99125725    4.3643599    1.4868394    5.8511993 -0.0059880394 -0.0059880394        47040 
   43500   0.99647863    4.3635326    1.4946712    5.8582039 -0.046477687 -0.046477687        47040 
   44000   0.99972082     4.369031    1.4995344    5.8685654  -0.01932777  -0.01932777        47040 
   44500    1.0077822     4.376204     1.511626      5.88783 -0.081221404 -0.081221404        47040 
   45000    1.0050569     4.381554    1.5075382    5.8890922 -0.059569823 -0.059569823        47040 
   45500   0.99268962    4.3679924    1.4889879    5.8569803  -0.11955759  -0.11955759        47040 
   46000   0.99877643    4.3675295    1.4981178    5.8656473 -0.043059355 -0.043059355        47040 
   46500   0.99888893    4.3718006    1.4982866    5.8700871 0.0089022293 0.0089022293        47040 
   47000    1.0028347    4.3549117     1.504205    5.8591167 -0.058731473 -0.058731473        47040 
   47500   0.99827561    4.3620004    1.4973666    5.8593671 -0.014671717 -0.014671717        47040 
   48000    1.0069088    4.3584957     1.510316    5.8688117 -0.0085290317 -0.0085290317        47040 
   48500    1.0080945    4.3607829    1.5120944    5.8728774 -0.023534062 -0.023534062        47040 
   49000    1.0057349    4.3576188    1.5085553    5.8661741 -0.056670875 -0.056670875        47040 
   49500    1.0033795    4.3690915    1.5050222    5.8741137 -0.046877236 -0.046877236        47040 
   50000   0.99494158    4.3575789    1.4923657    5.8499446 -0.056217905 -0.056217905        47040 
   50500   0.99801034    4.3552971    1.4969687    5.8522658  0.027159828  0.027159828        47040 
   51000    1.0029572    4.3603717    1.5043888    5.8647605 -0.022962287 -0.022962287        47040 
   51500    0.9972138    4.3620085     1.495774    5.8577825  -0.10347863  -0.10347863        47040 
   52000   0.99755086    4.3955607    1.4962795    5.8918402 -0.063780123 -0.063780123        47040 
   52500    1.0072752    4.3700047    1.5108656    5.8808703 -0.070653699 -0.070653699        47040 
   53000    1.0000585    4.3708527    1.5000408    5.8708935 -0.063499642 -0.063499642        47040 
   53500   0.99492603    4.3628307    1.4923424    5.8551731 -0.034702882 -0.034702882        47040 
   54000    1.0002407     4.346169    1.5003142    5.8464831 -0.088476479 -0.088476479        47040 
   54500   0.99059223    4.3508802    1.4858419    5.8367221 -0.052181686 -0.052181686        47040 
   55000   0.99399164    4.3506706    1.4909409    5.8416115  -0.06294835  -0.06294835        47040 
   55500   0.99924163    4.3587696    1.4988156    5.8575852  -0.02949549  -0.02949549        47040 
   56000   0.99849227    4.3758319    1.4976916    5.8735235 0.00086695117 0.00086695117        47040 
   56500   0.99817536    4.3754054    1.4972162    5.8726216 -0.096296452 -0.096296452        47040 
   57000   0.99445184    4.3579112    1.4916311    5.8495423 -0.025415389 -0.025415389        47040 
   57500    1.0014365    4.3491573    1.5021078    5.8512652 -0.057625416 -0.057625416        47040 
   58000    1.0014819     4.362671    1.5021759    5.8648469 -0.021260533 -0.021260533        47040 
   58500   0.99975148    4.3589225    1.4995804    5.8585028 -0.052578118 -0.052578118        47040 
   59000    1.0010171    4.3617194    1.5014788    5.8631982 -0.022056386 -0.022056386        47040 
   59500   0.99967083    4.3645094    1.4994594    5.8639688 -0.060653685 -0.060653685        47040 
   60000    1.0048722    4.3672411    1.5072612    5.8745023 -0.026162368 -0.026162368        47040 
   60500    1.0021382    4.3770028    1.5031603    5.8801631 -0.025533397 -0.025533397        47040 
   61000    1.0034927    4.3751166     1.505192    5.8803087 -0.039277204 -0.039277204        47040 
   61500    1.0082898    4.3733251    1.5123874    5.8857125  0.010478092  0.010478092        47040 
   62000    1.0060631     4.374089    1.5090475    5.8831365 -0.062951019 -0.062951019        47040 
   62500    1.0013734    4.3796401    1.5020131    5.8816533 -0.054063576 -0.054063576        47040 
   63000   0.99195765    4.3732699      1.48789    5.8611599 -0.010281354 -0.010281354        47040 
   63500   0.99632299    4.3702028    1.4944378    5.8646406 -0.033016357 -0.033016357        47040 
   64000    1.0013554    4.3687351    1.5019862    5.8707213 -0.00097614906 -0.00097614906        47040 
   64500   0.99696016    4.3707149    1.4953935    5.8661084 -0.045571798 -0.045571798        47040 
   65000    1.0056399    4.3587752    1.5084126    5.8671878  0.001730895  0.001730895        47040 
   65500    1.0041729    4.3600989    1.5062123    5.8663113 -0.035877508 -0.035877508        47040 
   66000    1.0091712    4.3523496    1.5137095    5.8660591 -0.0082525582 -0.0082525582        47040 
   66500    1.0037925    4.3549753    1.5056417     5.860617 -0.028231711 -0.028231711        47040 
   67000    1.0047489    4.3613763    1.5070763    5.8684525  0.016494573  0.016494573        47040 
   67500   0.99527152    4.3790221    1.4928606    5.8718828 -0.044019663 -0.044019663        47040 
   68000   0.99972581    4.3703341    1.4995419     5.869876  -0.11790234  -0.11790234        47040 
   68500    1.0040447    4.3747618      1.50602    5.8807819 -0.030516406 -0.030516406        47040 
   69000    1.0029478     4.371332    1.5043747    5.8757067 -0.044686066 -0.044686066        47040 
   69500    1.0045612    4.3766869    1.5067946    5.8834815  0.028267422  0.028267422        47040 
   70000    1.0040951    4.3753784    1.5060955    5.8814739 -0.0099883361 -0.0099883361        47040 
   70500    1.0010658    4.3734553    1.5015517    5.8750071 -0.018452348 -0.018452348        47040 
   71000    1.0034441    4.3694524    1.5051191    5.8745714 -0.046682528 -0.046682528        47040 
   71500   0.99581982    4.3594727     1.493683    5.8531558 -0.040199491 -0.040199491        47040 
   72000   0.99467595     4.360204    1.4919673    5.8521713 -0.061588207 -0.061588207        47040 
   72500   0.99497045    4.3598074     1.492409    5.8522165 -0.053432105 -0.053432105        47040 
   73000    1.0066024    4.3532927    1.5098564    5.8631491 -0.073968435 -0.073968435        47040 
   73500   0.99856693    4.3680536    1.4978036    5.8658572 -0.041309901 -0.041309901        47040 
   74000   0.99475233    4.3715268    1.4920819    5.8636087 -0.066075143 -0.066075143        47040 
   74500    1.0027222    4.3595306    1.5040363    5.8635668 -0.069460339 -0.069460339        47040 
   75000    1.0008643    4.3723577    1.5012496    5.8736073 -0.016803852 -0.016803852        47040 
   75500   0.99386185    4.3721058    1.4907462     5.862852  0.031707943  0.031707943        47040 
   76000   0.99854858    4.3791912    1.4977761    5.8769672  0.031108833  0.031108833        47040 
   76500   0.99099225     4.361488    1.4864419      5.84793  0.023082128  0.023082128        47040 
   77000   0.99432067    4.3612409    1.4914344    5.8526753 -0.0035354185 -0.0035354185        47040 
   77500   0.99435053    4.3707535    1.4914792    5.8622327 -0.079714679 -0.079714679        47040 
   78000   0.99880713    4.3752116    1.4981639    5.8733754 -0.0076232843 -0.0076232843        47040 
   78500    1.0011073    4.3660517     1.501614    5.8676658 -0.034635002 -0.034635002        47040 
   79000   0.99122802    4.3870276    1.4867956    5.8738232 -0.018221802 -0.018221802        47040 
   79500   0.99743443    4.3841523    1.4961049    5.8802572 -0.036078048 -0.036078048        47040 
   80000   0.99807305    4.3882113    1.4970628    5.8852741 -0.065979956 -0.065979956        47040 
   80500   0.99620925    4.3835009    1.4942672    5.8777681 -0.026353352 -0.026353352        47040 
   81000   0.99789199    4.3937038    1.4967912     5.890495 -0.043153023 -0.043153023        47040 
   81500   0.99736286    4.3770674    1.4959975     5.873065 -0.026646613 -0.026646613        47040 
   82000   0.99105189    4.3711177    1.4865314    5.8576491 -0.058714907 -0.058714907        47040 
   82500   0.99950809    4.3582982    1.4992153    5.8575135 -0.040278376 -0.040278376        47040 
   83000   0.99617332    4.3792376    1.4942133    5.8734508 -0.021739554 -0.021739554        47040 
   83500    1.0044572    4.3779975    1.5066388    5.8846363 -0.081547484 -0.081547484        47040 
   84000    1.0077142    4.3825611    1.5115241    5.8940852 -0.069387319 -0.069387319        47040 
   84500    1.0024956    4.3918051    1.5036964    5.8955016 -0.050688618 -0.050688618        47040 
   85000    1.0081321    4.3760378    1.5121509    5.8881887 -0.045266224 -0.045266224        47040 
   85500    1.0044791    4.3645236    1.5066715    5.8711952 -0.016352915 -0.016352915        47040 
   86000    1.0076155    4.3635216    1.5113759    5.8748976 0.00081595711 0.00081595711        47040 
   86500    1.0039804    4.3822381    1.5059236    5.8881616  0.038016052  0.038016052        47040 
   87000    1.0000286    4.3695117     1.499996    5.8695077  0.019113759  0.019113759        47040 
   87500   0.99783826    4.3794406    1.4967106    5.8761512   -0.0099788   -0.0099788        47040 
   88000   0.99675523    4.3880754    1.4950861    5.8831615 -0.064774531 -0.064774531        47040 
   88500    1.0007633    4.3918355     1.501098    5.8929335 -0.055808886 -0.055808886        47040 
   89000    1.0083641    4.3915946    1.5124989    5.9040935  -0.10245944  -0.10245944        47040 
   89500    1.0070931    4.3866323    1.5105924    5.8972246  -0.03669914  -0.03669914        47040 
   90000    1.0058461    4.3829354     1.508722    5.8916575 -0.073175771 -0.073175771        47040 
   90500    1.0009921    4.3780334    1.5014412    5.8794746 -0.062752374 -0.062752374        47040 
   91000    1.0007182    4.3681071    1.5010305    5.8691376 -0.083988154 -0.083988154        47040 
   91500   0.99981066    4.3768606    1.4996691    5.8765298 -0.024494014 -0.024494014        47040 
   92000   0.99774575    4.3755387    1.4965719    5.8721106  -0.12176382  -0.12176382        47040 
   92500    1.0008246    4.3770887      1.50119    5.8782787 -0.073332372 -0.073332372        47040 
   93000    1.0037677    4.3783489    1.5056046    5.8839534  -0.03430468  -0.03430468        47040 
   93500   0.99840334     4.373751    1.4975582    5.8713092 -0.066671138 -0.066671138        47040 
   94000   0.99462224    4.3723985    1.4918867    5.8642853 -0.053926888 -0.053926888        47040 
   94500   0.99858695     4.372845    1.4978336    5.8706786    -0.077465    -0.077465        47040 
   95000   0.99685274    4.3723217    1.4952324    5.8675541  -0.14442221  -0.14442221        47040 
   95500     1.002389    4.3708064    1.5035366     5.874343 -0.057347342 -0.057347342        47040 
   96000    1.0069675    4.3762426     1.510404    5.8866466 -0.012706514 -0.012706514        47040 
   96500     1.008839    4.3853487    1.5132111    5.8985599 -0.017089583 -0.017089583        47040 
   97000    1.0094547    4.3725479    1.5141347    5.8866827 0.00043767582 0.00043767582        47040 
   97500    1.0056889    4.3798936    1.5084863    5.8883799 -0.070005627 -0.070005627        47040 
   98000    1.0048757    4.3735675    1.5072664    5.8808339 -0.060891162 -0.060891162        47040 
   98500   0.99210208     4.368112    1.4881066    5.8562186 -0.030862118 -0.030862118        47040 
   99000   0.99594666    4.3681488    1.4938733    5.8620221 -0.046125194 -0.046125194        47040 
   99500    1.0014064    4.3714117    1.5020627    5.8734744 -0.064978729 -0.064978729        47040 
  100000    1.0032578    4.3652767    1.5048397    5.8701163 -0.053483306 -0.053483306        47040 
  100500    1.0021865    4.3742635    1.5032328    5.8774964 -0.040387487 -0.040387487        47040 
  101000      1.00244    4.3752993     1.503613    5.8789123  -0.10522654  -0.10522654        47040 
  101500   0.99782392    4.3807461    1.4966891    5.8774352 -0.076875106 -0.076875106        47040 
  102000    1.0004703    4.3824066    1.5006586    5.8830652 -0.032272809 -0.032272809        47040 
  102500   0.99997475     4.383832    1.4999153    5.8837473 -0.093593149 -0.093593149        47040 
  103000    1.0048538     4.377223    1.5072335    5.8844565   -0.1104226   -0.1104226        47040 
  103500     1.004273    4.3763673    1.5063624    5.8827296 -0.046980792 -0.046980792        47040 
  104000   0.99884939    4.3910562    1.4982273    5.8892834 -0.024834361 -0.024834361        47040 
  104500    1.0035371     4.382211    1.5052586    5.8874695 -0.079654835 -0.079654835        47040 
  105000    1.0066867    4.3752493    1.5099828    5.8852322   -0.1220152   -0.1220152        47040 
  105500    1.0013521    4.3733214    1.5019812    5.8753026 -0.047460222 -0.047460222        47040 
  106000    0.9881392    4.3766756    1.4821625    5.8588381 -0.050188169 -0.050188169        47040 
  106500    1.0031718     4.373071    1.5047107    5.8777816 -0.055427077 -0.055427077        47040 
  107000    1.0051529    4.3717705    1.5076823    5.8794527 -0.042046887 -0.042046887        47040 
  107500    1.0077416    4.3855964    1.5115651    5.8971616 -0.034931519 -0.034931519        47040 
  108000    1.0035265     4.387684    1.5052427    5.8929267 -0.069525468 -0.069525468        47040 
  108500   0.99337601     4.392716    1.4900175    5.8827334  -0.11258842  -0.11258842        47040 
  109000   0.99328973    4.3925906     1.489888    5.8824786 -0.062551745 -0.062551745        47040 
  109500   0.99415454    4.3685634    1.4911852    5.8597486 -0.073141054 -0.073141054        47040 
  110000   0.99910475    4.3589821    1.4986103    5.8575924 -0.073389221 -0.073389221        47040 
  110500    1.0038819    4.3677389    1.5057758    5.8735146 -0.072360059 -0.072360059        47040 
  111000    1.0004887    4.3648104    1.5006862    5.8654966 -0.099195414 -0.099195414        47040 
  111500   0.99918411    4.3728734    1.4987293    5.8716027 -0.0082603409 -0.0082603409        47040 
  112000    1.0016638     4.383246    1.5024488    5.8856948 -0.098144921 -0.098144921        47040 
  112500   0.98970423     4.387998      1.48451     5.872508  -0.13935697  -0.13935697        47040 
  113000   0.99936127    4.3729561    1.4989951    5.8719512   -0.1584176   -0.1584176        47040 
  113500    1.0032643    4.3828589    1.5048495    5.8877083 -0.081441639 -0.081441639        47040 
  114000    1.0055733    4.3745799    1.5083127    5.8828926 -0.071218234 -0.071218234        47040 
  114500   0.99598883    4.3613685    1.4939366    5.8553051 -0.047722263 -0.047722263        47040 
  115000   0.99697336    4.3656303    1.4954133    5.8610436 -0.079142463 -0.079142463        47040 
  115500   0.99580361    4.3735348    1.4936587    5.8671936 -0.098181107 -0.098181107        47040 
  116000    0.9962832    4.3706724    1.4943781    5.8650505  -0.10152809  -0.10152809        47040 
  116500   0.99301365    4.3819539    1.4894739    5.8714279 -0.088842161 -0.088842161        47040 
  117000   0.99686341    4.3772832    1.4952484    5.8725316 -0.065979501 -0.065979501        47040 
  117500   0.98924626    4.3713854     1.483823    5.8552084 -0.047461863 -0.047461863        47040 
  118000   0.99549281    4.3587768    1.4931925    5.8519694  -0.14967069  -0.14967069        47040 
  118500   0.99434822    4.3617843    1.4914757    5.8532601 -0.072133793 -0.072133793        47040 
  119000   0.99953176    4.3642745    1.4992508    5.8635253 -0.091857071 -0.091857071        47040 
  119500    1.0005316    4.3701197    1.5007505    5.8708702 -0.070418552 -0.070418552        47040 
  120000   0.99628231    4.3662971    1.4943768    5.8606739  -0.14483847  -0.14483847        47040 
  120500    1.0006203    4.3790497    1.5008835    5.8799332  -0.11566963  -0.11566963        47040 
  121000    1.0027852    4.3853003    1.5041308    5.8894311  -0.10297888  -0.10297888        47040 
  121500   0.99622522    4.3874802    1.4942911    5.8817713  -0.10748693  -0.10748693        47040 
  122000    1.0010972    4.3730096    1.5015989    5.8746085 -0.091811194 -0.091811194        47040 
  122500    1.0040896     4.361102    1.5060874    5.8671894 -0.030674264 -0.030674264        47040 
  123000    1.0031521    4.3593687    1.5046812    5.8640499  -0.06493545  -0.06493545        47040 
  123500   0.99122689    4.3528287    1.4867939    5.8396226  0.012917746  0.012917746        47040 
  124000   0.99337744    4.3550214    1.4900196     5.845041 -0.062227106 -0.062227106        47040 
  124500   0.99504472    4.3583043    1.4925204    5.8508248  -0.06017617  -0.06017617        47040 
  125000    1.0032807    4.3649076     1.504874    5.8697816 -0.051969609 -0.051969609        47040 
  125500    1.0110002    4.3657476    1.5164528    5.8822004  -0.10756358  -0.10756358        47040 
  126000     1.004699    4.3566775    1.5070014    5.8636789  -0.12563819  -0.12563819        47040 
  126500   0.99800227    4.3763302    1.4969566    5.8732868    -0.086064    -0.086064        47040 
  127000    1.0068761    4.3624548    1.5102669    5.8727217  -0.12694518  -0.12694518        47040 
  127500   0.99951122    4.3633879      1.49922    5.8626078 -0.076606178 -0.076606178        47040 
  128000   0.99838709     4.370969    1.4975338    5.8685029 -0.085052183 -0.085052183        47040 
  128500    1.0044613    4.3609814    1.5066449    5.8676262 -0.059242154 -0.059242154        47040 
  129000     1.003644    4.3593395    1.5054189    5.8647584  -0.05278912  -0.05278912        47040 
  129500     1.010406    4.3497187    1.5155617    5.8652804 -0.054873545 -0.054873545        47040 
  130000   0.99269157    4.3563431    1.4889908     5.845334 -0.079594856 -0.079594856        47040 
  130500   0.99520548    4.3485552    1.4927616    5.8413167 -0.084514241 -0.084514241        47040 
  131000    1.0008558    4.3534484    1.5012369    5.8546852 -0.094069654 -0.094069654        47040 
  131500   0.99917637    4.3604899    1.4987177    5.8592076  -0.13640149  -0.13640149        47040 
  132000   0.99794001    4.3669601    1.4968632    5.8638233  -0.11921607  -0.11921607        47040 
  132500    0.9988004    4.3733411    1.4981538    5.8714949  -0.10115707  -0.10115707        47040 
  133000    1.0029268    4.3640262    1.5043433    5.8683694  -0.07508444  -0.07508444        47040 
  133500   0.99974009    4.3544451    1.4995633    5.8540084  -0.17076577  -0.17076577        47040 
  134000   0.99729175    4.3601889    1.4958909    5.8560797 -0.046932084 -0.046932084        47040 
  134500    1.0042266    4.3574351    1.5062928    5.8637279  -0.09663403  -0.09663403        47040 
  135000   0.99765101    4.3488061    1.4964297    5.8452359 -0.025049869 -0.025049869        47040 
  135500    1.0002274    4.3424326    1.5002942    5.8427268   -0.1435535   -0.1435535        47040 
  136000    1.0013339    4.3505764    1.5019539    5.8525303  -0.11794715  -0.11794715        47040 
  136500   0.99582962    4.3650235    1.4936977    5.8587212 -0.076002835 -0.076002835        47040 
  137000    1.0047828    4.3558218     1.507127    5.8629488 -0.089375327 -0.089375327        47040 
  137500   0.99853917     4.363963    1.4977619    5.8617249 -0.069135019 -0.069135019        47040 
  138000   0.98845843    4.3618388    1.4826413    5.8444801 -0.089857105 -0.089857105        47040 
  138500   0.99161302     4.360469    1.4873731     5.847842  -0.12037388  -0.12037388        47040 
  139000    1.0026965    4.3481415    1.5039978    5.8521393  -0.11398628  -0.11398628        47040 
  139500   0.99990631    4.3583594    1.4998126    5.8581719  -0.08622685  -0.08622685        47040 
  140000   0.99943933    4.3612781    1.4991121    5.8603902  -0.10071431  -0.10071431        47040 
  140500    1.0091756    4.3619415    1.5137161    5.8756577 -0.061191291 -0.061191291        47040 
  141000     1.004041    4.3513211    1.5060145    5.8573356 -0.058715817 -0.058715817        47040 
  141500   0.99480347     4.363122    1.4921586    5.8552806 -0.085545034 -0.085545034        47040 
  142000   0.99109929    4.3506183    1.4866025    5.8372208  -0.12099412  -0.12099412        47040 
  142500   0.98989845    4.3579542    1.4848013    5.8427555  -0.12298404  -0.12298404        47040 
  143000   0.99702874    4.3534858    1.4954964    5.8489822  -0.11549179  -0.11549179        47040 
  143500   0.99434055    4.3641788    1.4914642     5.855643  -0.14493422  -0.14493422        47040 
  144000   0.99900522    4.3603633     1.498461    5.8588243  -0.15312396  -0.15312396        47040 
  144500   0.99857543    4.3600701    1.4978163    5.8578864 -0.050220629 -0.050220629        47040 
  145000     1.005584    4.3574112    1.5083289    5.8657401  -0.12120767  -0.12120767        47040 
  145500     1.001208    4.3639244     1.501765    5.8656894  -0.10316607  -0.10316607        47040 
  146000    1.0098781    4.3449012    1.5147698     5.859671  -0.12187573  -0.12187573        47040 
  146500    1.0039285    4.3543519    1.5058457    5.8601975 -0.088113418 -0.088113418        47040 
  147000    1.0059168    4.3641456     1.508828    5.8729736  -0.11471732  -0.11471732        47040 
  147500   0.99575049    4.3483252    1.4935791    5.8419043 -0.093707297 -0.093707297        47040 
  148000   0.99343856    4.3336856    1.4901113    5.8237969 -0.088338681 -0.088338681        47040 
  148500    1.0023875    4.3438016    1.5035342    5.8473359 -0.091098604 -0.091098604        47040 
  149000    1.0025914    4.3457532    1.5038401    5.8495933 -0.078066553 -0.078066553        47040 
  149500    1.0077259    4.3480043    1.5115417     5.859546 -0.048279591 -0.048279591        47040 
  150000    1.0110098    4.3374681    1.5164673    5.8539353 -0.053050637 -0.053050637        47040 
  150500    0.9993109    4.3352998    1.4989195    5.8342193 -0.055911676 -0.055911676        47040 
  151000     0.996834    4.3419001    1.4952043    5.8371044 -0.056091899 -0.056091899        47040 
  151500    1.0018953     4.344746     1.502796     5.847542 -0.095749336 -0.095749336        47040 
  152000    1.0056941    4.3467128    1.5084941    5.8552069 -0.073175768 -0.073175768        47040 
  152500    1.0023763    4.3557205    1.5035174    5.8592379  -0.11235285  -0.11235285        47040 
  153000   0.99733828    4.3517822    1.4959607    5.8477428 -0.070112785 -0.070112785        47040 
  153500    0.9948941    4.3622279    1.4922945    5.8545224  -0.15994334  -0.15994334        47040 
  154000   0.99541034    4.3506499    1.4930689    5.8437188  -0.16092397  -0.16092397        47040 
  154500   0.99609181    4.3530829     1.494091     5.847174 -0.078403243 -0.078403243        47040 
  155000    1.0039031     4.344248    1.5058076    5.8500556  -0.17128252  -0.17128252        47040 
  155500   0.99627334    4.3434212    1.4943633    5.8377846 -0.098031008 -0.098031008        47040 
  156000   0.99838994    4.3539075    1.4975381    5.8514456  -0.10327842  -0.10327842        47040 
  156500   0.99698263    4.3536447    1.4954272    5.8490719 -0.054641565 -0.054641565        47040 
  157000   0.98798139    4.3525827    1.4819258    5.8345085 -0.089689134 -0.089689134        47040 
  157500    0.9966512    4.3545425    1.4949301    5.8494726 -0.098911395 -0.098911395        47040 
  158000    1.0005936    4.3508572    1.5008434    5.8517007 -0.071874124 -0.071874124        47040 
  158500   0.98923904    4.3534727    1.4838122    5.8372849  -0.10513801  -0.10513801        47040 
  159000   0.99954931     4.347584    1.4992771    5.8468611  -0.10391171  -0.10391171        47040 
  159500    1.0011684      4.35262    1.5017057    5.8543258  -0.12683645  -0.12683645        47040 
  160000     1.000746    4.3473482    1.5010721    5.8484203  -0.10665957  -0.10665957        47040 
  160500   0.99451824    4.3515667    1.4917307    5.8432974 -0.051792751 -0.051792751        47040 
  161000   0.99274211    4.3544877    1.4890666    5.8435543 -0.089860981 -0.089860981        47040 
  161500    1.0004426    4.3625032     1.500617    5.8631202 -0.091320827 -0.091320827        47040 
  162000    1.0013175    4.3643716    1.5019293    5.8663009 -0.077035167 -0.077035167        47040 
  162500    1.0013735    4.3565564    1.5020134    5.8585697  -0.19605545  -0.19605545        47040 
  163000    1.0073543     4.352968    1.5109842    5.8639522   -0.1251046   -0.1251046        47040 
  163500    1.0090227    4.3545582    1.5134868     5.868045 -0.072009747 -0.072009747        47040 
  164000    1.0021354    4.3656492    1.5031562    5.8688054  -0.12614583  -0.12614583        47040 
  164500    1.0026159    4.3602871    1.5038768    5.8641639 -0.093157971 -0.093157971        47040 
  165000     1.000078    4.3517386    1.5000701    5.8518087   -0.1631231   -0.1631231        47040 
  165500    1.0016531    4.3422321    1.5024326    5.8446648  -0.10972578  -0.10972578        47040 
  166000   0.99602109    4.3487866    1.4939849    5.8427715   -0.1550701   -0.1550701        47040 
  166500   0.99466756    4.3498079    1.4919547    5.8417626  -0.11711483  -0.11711483        47040 
  167000    1.0003245    4.3515442    1.5004399    5.8519841  -0.11000587  -0.11000587        47040 
  167500    1.0053206    4.3479481    1.5079337    5.8558818  -0.17500577  -0.17500577        47040 
  168000    1.0055374    4.3504227     1.508259    5.8586816  -0.10720136  -0.10720136        47040 
  168500   0.99996604    4.3627141    1.4999022    5.8626163 -0.092885767 -0.092885767        47040 
  169000   0.99879115    4.3531358    1.4981399    5.8512757 -0.091378462 -0.091378462        47040 
  169500   0.99895795    4.3397861    1.4983901    5.8381762 -0.094788838 -0.094788838        47040 
  170000   0.99458781    4.3380926    1.4918351    5.8299277  -0.10154392  -0.10154392        47040 
  170500   0.99578713    4.3310381     1.493634    5.8246722 -0.070340157 -0.070340157        47040 
  171000   0.99444072    4.3328192    1.4916145    5.8244337  -0.12068745  -0.12068745        47040 
  171500    1.0009233    4.3485597     1.501338    5.8498977 -0.075422324 -0.075422324        47040 
  172000   0.99903094    4.3522964    1.4984996     5.850796   -0.1064971   -0.1064971        47040 
  172500    1.0094229    4.3482204     1.514087    5.8623074  -0.13101813  -0.13101813        47040 
  173000    1.0112061    4.3497087    1.5167617    5.8664704 -0.061860609 -0.061860609        47040 
  173500   0.99701447    4.3467854     1.495475    5.8422604 -0.061950053 -0.061950053        47040 
  174000    1.0014601    4.3455972    1.5021432    5.8477404  -0.13830027  -0.13830027        47040 
  174500    1.0063582    4.3370515    1.5094901    5.8465416 -0.092919262 -0.092919262        47040 
  175000    1.0029979    4.3369249    1.5044499    5.8413748 -0.050277899 -0.050277899        47040 
  175500   0.99953708    4.3399487    1.4992588    5.8392075   -0.1145133   -0.1145133        47040 
  176000   0.99144475    4.3452549    1.4871207    5.8323755  -0.11067853  -0.11067853        47040 
  176500   0.99659289    4.3524493    1.4948426     5.847292  -0.08524012  -0.08524012        47040 
  177000   0.99401916    4.3513319    1.4909822     5.842314  -0.11645944  -0.11645944        47040 
  177500    1.0010641    4.3542522    1.5015492    5.8558013  -0.12004014  -0.12004014        47040 
  178000      1.00276    4.3494378     1.504093    5.8535309  -0.14950612  -0.14950612        47040 
  178500    1.0016164    4.3467951    1.5023777    5.8491728  -0.10468951  -0.10468951        47040 
  179000   0.99927364    4.3394619    1.4988636    5.8383255 -0.037595435 -0.037595435        47040 
  179500   0.99835687     4.337862    1.4974885    5.8353505  -0.13854434  -0.13854434        47040 
  180000   0.99897797    4.3446289    1.4984201    5.8430491  -0.16879957  -0.16879957        47040 
  180500   0.99684946    4.3613115    1.4952275    5.8565389 -0.097474288 -0.097474288        47040 
  181000   0.99788054    4.3437527     1.496774    5.8405267  -0.14065999  -0.14065999        47040 
  181500   0.99939104    4.3428037    1.4990397    5.8418434  -0.10386104  -0.10386104        47040 
  182000   0.99486026    4.3419885    1.4922438    5.8342323  -0.13060318  -0.13060318        47040 
  182500    1.0075849    4.3532987    1.5113301    5.8646288 -0.078875879 -0.078875879        47040 
  183000    1.0029457    4.3388222    1.5043715    5.8431937 -0.085840886 -0.085840886        47040 
  183500    1.0021277    4.3291232    1.5031446    5.8322678 -0.044253157 -0.044253157        47040 
  184000   0.99872713    4.3369947    1.4980439    5.8350386 -0.041208533 -0.041208533        47040 
  184500    1.0016128      4.32676    1.5023723    5.8291323 -0.082933101 -0.082933101        47040 
  185000    1.0006974     4.312606    1.5009992    5.8136052 -0.094929032 -0.094929032        47040 
  185500    0.9942196    4.3339404    1.4912828    5.8252232 -0.085420726 -0.085420726        47040 
  186000    1.0036872    4.3343094    1.5054837    5.8397932  -0.13272131  -0.13272131        47040 
  186500   0.99647945    4.3395271    1.4946725    5.8341995 -0.095807135 -0.095807135        47040 
  187000   0.98869665    4.3463504    1.4829986     5.829349  -0.11106003  -0.11106003        47040 
  187500   0.99559587    4.3404874    1.4933471    5.8338346  -0.16208355  -0.16208355        47040 
  188000   0.99819618    4.3416144    1.4972475    5.8388619  -0.14425099  -0.14425099        47040 
  188500   0.99510934    4.3560343    1.4926174    5.8486517 -0.050883724 -0.050883724        47040 
  189000    1.0005295    4.3447476    1.5007473    5.8454949  -0.12964995  -0.12964995        47040 
  189500    1.0042868    4.3428458    1.5063832     5.849229   -0.1304785   -0.1304785        47040 
  190000    1.0013862    4.3389896    1.5020324     5.841022 -0.086563483 -0.086563483        47040 
  190500    1.0003118    4.3588101    1.5004209    5.8592309  -0.12284096  -0.12284096        47040 
  191000    1.0020714    4.3615364    1.5030601    5.8645965  -0.13444746  -0.13444746        47040 
  191500    1.0134095    4.3464186    1.5200667    5.8664853  -0.08508994  -0.08508994        47040 
  192000   0.99654216    4.3511189    1.4947665    5.8458854   -0.1017404   -0.1017404        47040 
  192500    1.0004962    4.3402311    1.5006974    5.8409285 -0.073183021 -0.073183021        47040 
  193000    1.0045765    4.3324321    1.5068176    5.8392497 -0.086218761 -0.086218761        47040 
  193500    1.0016451    4.3351078    1.5024208    5.8375286 -0.063845723 -0.063845723        47040 
  194000    1.0051512     4.331542    1.5076797    5.8392217 -0.060549479 -0.060549479        47040 
  194500    1.0068618    4.3445976    1.5102455    5.8548431 -0.060942842 -0.060942842        47040 
  195000    1.0000223    4.3589482    1.4999866    5.8589348 -0.083464923 -0.083464923        47040 
  195500    1.0017161    4.3481556    1.5025272    5.8506828  -0.14504701  -0.14504701        47040 
  196000   0.99738302    4.3412517    1.4960278    5.8372794 -0.072972342 -0.072972342        47040 
  196500    0.9947028    4.3418458    1.4920076    5.8338534 -0.071050581 -0.071050581        47040 
  197000   0.99350246    4.3339598    1.4902071    5.8241669 -0.065181102 -0.065181102        47040 
  197500   0.99463892    4.3240853    1.4919117     5.815997 -0.083760665 -0.083760665        47040 
  198000   0.99741025    4.3208945    1.4960686    5.8169632 -0.054885873 -0.054885873        47040 
  198500    1.0001843    4.3117359    1.5002295    5.8119654  -0.11166604  -0.11166604        47040 
  199000    1.0099164    4.3347816    1.5148272    5.8496088 -0.041478078 -0.041478078        47040 
  199500    1.0009724    4.3413861    1.5014117    5.8427978 -0.027400058 -0.027400058        47040 
  200000    1.0050665    4.3375066    1.5075526    5.8450592 -0.080991145 -0.080991145        47040 
  200500   0.99879814    4.3401124    1.4981504    5.8382628  -0.11920091  -0.11920091        47040 
  201000   0.99614941    4.3414091    1.4941774    5.8355866 -0.027600731 -0.027600731        47040 
  201500    1.0006032    4.3351333    1.5008579    5.8359913  -0.10830188  -0.10830188        47040 
  202000    1.0047556    4.3369468    1.5070863    5.8440332  -0.16582736  -0.16582736        47040 
  202500   0.99832033     4.338785    1.4974337    5.8362187  -0.12934865  -0.12934865        47040 
  203000   0.99275736     4.338499    1.4890895    5.8275885  -0.10815412  -0.10815412        47040 
  203500   0.98525001     4.332612    1.4778288    5.8104408 -0.098475219 -0.098475219        47040 
  204000    1.0007293    4.3333248    1.5010471    5.8343719 -0.099096743 -0.099096743        47040 
  204500    1.0079599    4.3257169    1.5118926    5.8376095 -0.077463246 -0.077463246        47040 
  205000    1.0061411    4.3271831    1.5091644    5.8363475 -0.019521446 -0.019521446        47040 
  205500    1.0021334    4.3339459    1.5031531     5.837099 -0.024917089 -0.024917089        47040 
  206000    1.0010698    4.3230136    1.5015578    5.8245714 -0.092998486 -0.092998486        47040 
  206500   0.99540989    4.3277357    1.4930682    5.8208039  -0.14403979  -0.14403979        47040 
  207000    1.0007508    4.3363913    1.5010792    5.8374705   -0.1518251   -0.1518251        47040 
  207500    1.0019128     4.334272    1.5028222    5.8370942  -0.09307515  -0.09307515        47040 
  208000    1.0010232    4.3364385    1.5014878    5.8379263 -0.071211053 -0.071211053        47040 
  208500   0.99645238    4.3364074    1.4946319    5.8310393 -0.037298925 -0.037298925        47040 
  209000   0.99926804    4.3312984    1.4988552    5.8301537 -0.072775499 -0.072775499        47040 
  209500    1.0024094    4.3430367    1.5035671    5.8466037  -0.14049465  -0.14049465        47040 
  210000   0.99487264    4.3473225    1.4922623    5.8395848  -0.09595344  -0.09595344        47040 
  210500    1.0043156    4.3381762    1.5064263    5.8446026  -0.14023594  -0.14023594        47040 
  211000   0.99023656    4.3347234    1.4853084    5.8200318 -0.072785922 -0.072785922        47040 
  211500    1.0047627    4.3334654     1.507097    5.8405624 -0.086596405 -0.086596405        47040 
  212000    1.0044479    4.3349427    1.5066248    5.8415675 -0.082936079 -0.082936079        47040 
  212500    1.0049174    4.3328143     1.507329    5.8401433  -0.08689426  -0.08689426        47040 
  213000    1.0050259    4.3473943    1.5074917     5.854886  -0.09903882  -0.09903882        47040 
  213500    1.0045104    4.3499604    1.5067185    5.8566788  -0.11134687  -0.11134687        47040 
  214000    1.0004514    4.3622544    1.5006302    5.8628846  -0.11912549  -0.11912549        47040 
  214500    1.0067046    4.3579148    1.5100098    5.8679246 -0.075652668 -0.075652668        47040 
  215000    1.0017044     4.338596    1.5025097    5.8411057  -0.16992599  -0.16992599        47040 
  215500   0.99724903    4.3391532    1.4958268      5.83498 -0.073790544 -0.073790544        47040 
  216000    1.0016509    4.3365953    1.5024294    5.8390246  -0.17265512  -0.17265512        47040 
  216500   0.99091535    4.3473256    1.4863266    5.8336522  -0.18968935  -0.18968935        47040 
  217000   0.99464838    4.3477774    1.4919259    5.8397033  -0.10821075  -0.10821075        47040 
  217500   0.99634001    4.3464525    1.4944633    5.8409158  -0.10007787  -0.10007787        47040 
  218000   0.99549225    4.3472607    1.4931917    5.8404524  -0.13406424  -0.13406424        47040 
  218500    1.0008152    4.3355091    1.5011759     5.836685 -0.099344252 -0.099344252        47040 
  219000    0.9978458    4.3558123    1.4967219    5.8525342 -0.066887551 -0.066887551        47040 
  219500    1.0020703    4.3388942    1.5030585    5.8419527  -0.08165546  -0.08165546        47040 
  220000     1.004431     4.332758    1.5065994    5.8393575 -0.090410158 -0.090410158        47040 
  220500    1.0046004    4.3254531    1.5068534    5.8323065  -0.11686231  -0.11686231        47040 
  221000    1.0078494    4.3250578    1.5117269    5.8367847 -0.093721253 -0.093721253        47040 
  221500    1.0053314    4.3233817      1.50795    5.8313317  -0.11195286  -0.11195286        47040 
  222000     1.003821    4.3236422    1.5056845    5.8293267 -0.072074646 -0.072074646        47040 
  222500    1.0020045    4.3213657    1.5029598    5.8243254 -0.099303551 -0.099303551        47040 
  223000    1.0032319    4.3353497    1.5048008    5.8401505 -0.068318644 -0.068318644        47040 
  223500   0.99712331    4.3351492    1.4956382    5.8307875  -0.16795493  -0.16795493        47040 
  224000    1.0007254    4.3271106    1.5010412    5.8281518  -0.11329189  -0.11329189        47040 
  224500   0.99197245    4.3384864    1.4879122    5.8263986  -0.14184483  -0.14184483        47040 
  225000    1.0033635    4.3450349    1.5049983    5.8500332   -0.0588091   -0.0588091        47040 
  225500    0.9959397    4.3603953    1.4938629    5.8542582  -0.10431024  -0.10431024        47040 
  226000   0.99728648    4.3557583     1.495883    5.8516413 -0.095053883 -0.095053883        47040 
  226500   0.99634547    4.3617424    1.4944715    5.8562139  -0.10165847  -0.10165847        47040 
  227000    1.0066938    4.3552491    1.5099935    5.8652425  -0.12437355  -0.12437355        47040 
  227500   0.99976916    4.3632897    1.4996069    5.8628966  -0.12707926  -0.12707926        47040 
  228000    1.0048258    4.3485493    1.5071916    5.8557409 -0.094312936 -0.094312936        47040 
  228500   0.99894606    4.3486006    1.4983723    5.8469728 -0.052633516 -0.052633516        47040 
  229000   0.99913379    4.3298781    1.4986538    5.8285319  -0.10469944  -0.10469944        47040 
  229500    1.0067629    4.3210725    1.5100972    5.8311697 -0.064320322 -0.064320322        47040 
  230000    1.0057954    4.3267408    1.5086459    5.8353867 -0.097977431 -0.097977431        47040 
  230500    1.0036175    4.3226557    1.5053791    5.8280348 -0.052867532 -0.052867532        47040 
  231000    1.0032565    4.3252558    1.5048377    5.8300935 -0.0014550667 -0.0014550667        47040 
  231500    1.0003451    4.3338808    1.5004707    5.8343515  -0.10192134  -0.10192134        47040 
  232000    1.0018253    4.3372588     1.502691    5.8399498   -0.1738319   -0.1738319        47040 
  232500    1.0003502    4.3466218    1.5004783    5.8471001  -0.15696651  -0.15696651        47040 
  233000    1.0034048    4.3553202    1.5050602    5.8603805 -0.078711191 -0.078711191        47040 
  233500    1.0038672    4.3433715    1.5057537    5.8491252 -0.029339448 -0.029339448        47040 
  234000   0.99202294    4.3436361    1.4879879     5.831624  -0.11944488  -0.11944488        47040 
  234500    1.0049907    4.3279094    1.5074389    5.8353483 -0.036970569 -0.036970569        47040 
  235000    1.0092888    4.3224704    1.5138859    5.8363563  -0.10271061  -0.10271061        47040 
  235500    1.0074341    4.3243351     1.511104     5.835439 -0.083954927 -0.083954927        47040 
  236000    1.0002943    4.3411272    1.5003946    5.8415218 -0.043153983 -0.043153983        47040 
  236500    1.0098061    4.3402998    1.5146618    5.8549616 -0.079579145 -0.079579145        47040 
  237000    1.0073201    4.3463734     1.510933    5.8573064   -0.1065951   -0.1065951        47040 
  237500    1.0019876    4.3391989    1.5029345    5.8421334 -0.075621224 -0.075621224        47040 
  238000   0.99455405    4.3562643    1.4917845    5.8480487 -0.075940539 -0.075940539        47040 
  238500    1.0051573      4.36375    1.5076889    5.8714388  -0.12766615  -0.12766615        47040 
  239000    1.0063633    4.3499546    1.5094978    5.8594523 -0.054821868 -0.054821868        47040 
  239500    1.0001698    4.3423902    1.5002078     5.842598 -0.047519882 -0.047519882        47040 
  240000   0.99880417    4.3463942    1.4981594    5.8445536  -0.10825209  -0.10825209        47040 
  240500    1.0013069    4.3286445    1.5019134    5.8305579  -0.11317941  -0.11317941        47040 
  241000   0.99851737    4.3270103    1.4977293    5.8247396  -0.17271436  -0.17271436        47040 
  241500   0.99989173    4.3454505    1.4997907    5.8452412 -0.090408031 -0.090408031        47040 
  242000    0.9949639    4.3512992    1.4923992    5.8436984  -0.11132286  -0.11132286        47040 
  242500    1.0004342    4.3548077    1.5006044    5.8554121  -0.12517003  -0.12517003        47040 
  243000   0.98735251    4.3479109    1.4809825    5.8288933  -0.13960279  -0.13960279        47040 
  243500   0.99632088    4.3358147    1.4944346    5.8302493 -0.053000778 -0.053000778        47040 
  244000   0.99528166     4.339178    1.4928758    5.8320538 -0.046479062 -0.046479062        47040 
  244500   0.99649791    4.3356447    1.4947002    5.8303449 -0.057571165 -0.057571165        47040 
  245000   0.99341804    4.3080596    1.4900805    5.7981401 -0.091013478 -0.091013478        47040 
  245500   0.99530723    4.3040733    1.4929142    5.7969875 -0.061013719 -0.061013719        47040 
  246000    1.0031357    4.3273768    1.5046565    5.8320334 -0.062038676 -0.062038676        47040 
  246500   0.99957459    4.3252515     1.499315    5.8245666 -0.060002471 -0.060002471        47040 
  247000   0.99467106    4.3346297      1.49196    5.8265897 -0.096698338 -0.096698338        47040 
  247500    1.0018547    4.3405178    1.5027352    5.8432529  -0.12578527  -0.12578527        47040 
  248000      1.00025    4.3486519    1.5003281      5.84898  -0.18960366  -0.18960366        47040 
  248500   0.99011924    4.3670687    1.4851325    5.8522011    -0.105702    -0.105702        47040 
  249000   0.99765429    4.3598665    1.4964347    5.8563011 -0.096209088 -0.096209088        47040 
  249500   0.99737115    4.3533337      1.49601    5.8493437 -0.092353546 -0.092353546        47040 
  250000   0.99644413    4.3565648    1.4946195    5.8511843  -0.13554482  -0.13554482        47040 
  250500    1.0041282    4.3257642    1.5061452    5.8319094  -0.15581966  -0.15581966        47040 
  251000   0.99276994    4.3381966    1.4891084     5.827305 -0.040803444 -0.040803444        47040 
  251500   0.99615751    4.3375309    1.4941896    5.8317204 -0.086808272 -0.086808272        47040 
  252000    1.0053616    4.3344106    1.5079953    5.8424059  -0.10503551  -0.10503551        47040 
  252500    1.0036852    4.3412937    1.5054808    5.8467745 -0.089865354 -0.089865354        47040 
  253000    1.0052186     4.348026    1.5077808    5.8558068 -0.085621302 -0.085621302        47040 
  253500    1.0048037    4.3411075    1.5071585    5.8482661 -0.080284384 -0.080284384        47040 
  254000   0.99923834    4.3414372    1.4988107    5.8402479 -0.095694762 -0.095694762        47040 
  254500    0.9934128    4.3490148    1.4900726    5.8390875  -0.09721853  -0.09721853        47040 
  255000    1.0038751    4.3347327    1.5057656    5.8404982 -0.062191277 -0.062191277        47040 
  255500    1.0080437    4.3411057    1.5120183     5.853124  -0.05887137  -0.05887137        47040 
  256000    1.0098743    4.3468638    1.5147641    5.8616279  -0.11075279  -0.11075279        47040 
  256500    1.0015986    4.3356982     1.502351    5.8380492  -0.14670096  -0.14670096        47040 
  257000     1.000983     4.336891    1.5014275    5.8383185  -0.14937504  -0.14937504        47040 
  257500   0.99682764    4.3425468    1.4951947    5.8377415  -0.12845679  -0.12845679        47040 
  258000   0.99841611    4.3459395    1.4975774    5.8435169  -0.10083707  -0.10083707        47040 
  258500   0.99877628    4.3554157    1.4981176    5.8535333   -0.1067204   -0.1067204        47040 
  259000    1.0012159    4.3557763    1.5017769    5.8575531 -0.099966125 -0.099966125        47040 
  259500    1.0047623    4.3541887    1.5070964    5.8612851 -0.087928675 -0.087928675        47040 
  260000   0.99411785    4.3514094    1.4911302    5.8425395  -0.10260287  -0.10260287        47040 
  260500   0.99672874     4.354864    1.4950464    5.8499104  -0.12607942  -0.12607942        47040 
  261000    1.0046795    4.3371973    1.5069721    5.8441694 -0.090603527 -0.090603527        47040 
  261500    1.0019221    4.3311826    1.5028361    5.8340188 -0.077812194 -0.077812194        47040 
  262000    1.0000417    4.3359915    1.5000156    5.8360071 -0.091611398 -0.091611398        47040 
  262500   0.99396135    4.3521386    1.4908954     5.843034  -0.12818912  -0.12818912        47040 
  263000    1.0035167    4.3415552     1.505228    5.8467832  -0.10755963  -0.10755963        47040 
  263500    1.0023267     4.354927    1.5034431      5.85837 -0.095441899 -0.095441899        47040 
  264000    1.0082784    4.3424195    1.5123703    5.8547898   -0.1362057   -0.1362057        47040 
  264500    1.0025317    4.3459353    1.5037505    5.8496859  -0.11709823  -0.11709823        47040 
  265000    1.0000198    4.3554941    1.4999828    5.8554769  -0.13014943  -0.13014943        47040 
  265500     1.001421     4.355599    1.5020846    5.8576836  -0.10026354  -0.10026354        47040 
  266000    1.0066133    4.3650309    1.5098727    5.8749037  -0.15288246  -0.15288246        47040 
  266500    1.0035872    4.3610048    1.5053338    5.8663386 -0.084506058 -0.084506058        47040 
  267000    1.0021573    4.3586099    1.5031889    5.8617988   -0.1210756   -0.1210756        47040 
  267500    1.0010374    4.3549152    1.5015092    5.8564244  -0.16218113  -0.16218113        47040 
  268000     1.002487    4.3312217    1.5036835    5.8349052  -0.10753478  -0.10753478        47040 
  268500   0.99635316    4.3414607     1.494483    5.8359437 -0.083320476 -0.083320476        47040 
  269000    1.0049057    4.3247013    1.5073114    5.8320127 -0.067060392 -0.067060392        47040 
  269500   0.99435749    4.3319441    1.4914896    5.8234337 -0.076809079 -0.076809079        47040 
  270000   0.99728066    4.3384829    1.4958742    5.8343571  -0.12834487  -0.12834487        47040 
  270500    1.0008592    4.3403065    1.5012419    5.8415484  -0.11373644  -0.11373644        47040 
  271000   0.99769821    4.3276907    1.4965006    5.8241913  -0.15300611  -0.15300611        47040 
  271500   0.98686996    4.3384967    1.4802587    5.8187554  -0.10603792  -0.10603792        47040 
  272000    1.0005798    4.3231741    1.5008228    5.8239969 -0.069886407 -0.069886407        47040 
  272500   0.99483284    4.3196271    1.4922026    5.8118297   -0.1004558   -0.1004558        47040 
  273000    1.0027125    4.3271758    1.5040217    5.8311976 -0.026855148 -0.026855148        47040 
  273500   0.99361861    4.3269878    1.4903813    5.8173692  -0.11567195  -0.11567195        47040 
  274000   0.99642325    4.3321217    1.4945882    5.8267098 -0.083016151 -0.083016151        47040 
  274500   0.99846109    4.3313992    1.4976448    5.8290441 -0.087648243 -0.087648243        47040 
  275000    1.0062324    4.3535256    1.5093014     5.862827  -0.10669788  -0.10669788        47040 
  275500    0.9969462    4.3504456    1.4953726    5.8458182 -0.077516847 -0.077516847        47040 
  276000   0.99502876    4.3500125    1.4924965    5.8425089  -0.21704218  -0.21704218        47040 
  276500   0.99951041    4.3516595    1.4992188    5.8508782  -0.22094761  -0.22094761        47040 
  277000    1.0004366    4.3578113     1.500608    5.8584193  -0.14424618  -0.14424618        47040 
  277500    1.0064156    4.3530442    1.5095762    5.8626204  -0.15756008  -0.15756008        47040 
  278000   0.99496888    4.3494591    1.4924067    5.8418658 -0.093041915 -0.093041915        47040 
  278500   0.99733134    4.3528157    1.4959503     5.848766  -0.14678225  -0.14678225        47040 
  279000     1.000968    4.3318241    1.5014051    5.8332292 -0.035797001 -0.035797001        47040 
  279500    1.0009084    4.3447577    1.5013157    5.8460734 -0.091054652 -0.091054652        47040 
  280000    1.0065929    4.3354605    1.5098421    5.8453026  -0.12757597  -0.12757597        47040 
  280500    1.0048703    4.3343103    1.5072584    5.8415687 -0.049185755 -0.049185755        47040 
  281000    1.0088385    4.3427309    1.5132104    5.8559413 -0.082076072 -0.082076072        47040 
  281500    1.0087214    4.3319384    1.5130348    5.8449732 -0.038606998 -0.038606998        47040 
  282000    1.0022868    4.3362339    1.5033833    5.8396172  -0.12101949  -0.12101949        47040 
  282500   0.99793344    4.3399383    1.4968534    5.8367917  -0.09776887  -0.09776887        47040 
  283000   0.99473678    4.3365043    1.4920585    5.8285629  -0.15540146  -0.15540146        47040 
  283500    1.0018612    4.3483127    1.5027449    5.8510576  -0.12869242  -0.12869242        47040 
  284000    1.0035369    4.3411445    1.5052583    5.8464028  -0.13547656  -0.13547656        47040 
  284500   0.99695268    4.3463595    1.4953823    5.8417418  -0.12333485  -0.12333485        47040 
  285000   0.99701205     4.338087    1.4954713    5.8335583  -0.11636932  -0.11636932        47040 
  285500   0.99163913    4.3307292    1.4874122    5.8181414  -0.11919959  -0.11919959        47040 
  286000    1.0000249     4.332884    1.4999904    5.8328744 -0.024498701 -0.024498701        47040 
  286500    1.0041511    4.3254905    1.5061796    5.8316701 -0.089397915 -0.089397915        47040 
  287000    1.0058459    4.3381033    1.5087216    5.8468249 -0.094924062 -0.094924062        47040 
  287500    1.0014044    4.3462973    1.5020597     5.848357 -0.052108976 -0.052108976        47040 
  288000   0.99528179    4.3411518     1.492876    5.8340278  -0.12880159  -0.12880159        47040 
  288500   0.99744065    4.3364832    1.4961142    5.8325974  -0.12729631  -0.12729631        47040 
  289000   0.99857881    4.3388535    1.4978214     5.836675 -0.071137455 -0.071137455        47040 
  289500    1.0038425     4.324334    1.5057166    5.8300506  -0.11809635  -0.11809635        47040 
  290000    0.9962032    4.3188399    1.4942581     5.813098 -0.086394314 -0.086394314        47040 
  290500   0.99809073     4.329327    1.4970893    5.8264164 -0.032100868 -0.032100868        47040 
  291000    1.0007121    4.3307636    1.5010213    5.8317849 -0.064833743 -0.064833743        47040 
  291500    0.9982151    4.3403663    1.4972759    5.8376421 -0.063790168 -0.063790168        47040 
  292000    1.0006516    4.3272002    1.5009305    5.8281307 -0.081512108 -0.081512108        47040 
  292500    1.0053215    4.3332465    1.5079351    5.8411816 -0.061534982 -0.061534982        47040 
  293000    1.0003537     4.341878    1.5004836    5.8423617 -0.038401823 -0.038401823        47040 
  293500   0.99950965    4.3388978    1.4992176    5.8381155  -0.11808766  -0.11808766        47040 
  294000    1.0032555    4.3309954    1.5048363    5.8358317 -0.099611781 -0.099611781        47040 
  294500   0.99946909    4.3391088    1.4991568    5.8382655  -0.13275749  -0.13275749        47040 
  295000   0.99005028    4.3390338     1.485029    5.8240628  -0.16920519  -0.16920519        47040 
  295500   0.99696081    4.3439021    1.4953945    5.8392966  -0.13909979  -0.13909979        47040 
  296000   0.99271729    4.3506985    1.4890294    5.8397279  -0.10718748  -0.10718748        47040 
  296500   0.99677588    4.3539104    1.4951171    5.8490275  -0.10004881  -0.10004881        47040 
  297000    1.0012758     4.343533    1.5018668    5.8453998 -0.098672841 -0.098672841        47040 
  297500   0.99442075    4.3401964    1.4915845    5.8317809   -0.1028642   -0.1028642        47040 
  298000   0.99813303    4.3302923    1.4971528     5.827445  -0.14180755  -0.14180755        47040 
  298500    1.0016042    4.3315697    1.5023593     5.833929 -0.050879937 -0.050879937        47040 
  299000   0.99162173    4.3362001    1.4873861    5.8235862 -0.085030686 -0.085030686        47040 
  299500   0.99571596    4.3374505    1.4935273    5.8309777 -0.061735357 -0.061735357        47040 
  300000    1.0012887     4.334843     1.501886     5.836729 -0.052382424 -0.052382424        47040 
  300500    1.0053179    4.3496567    1.5079297    5.8575864 -0.083640597 -0.083640597        47040 
  301000    1.0077528     4.348705    1.5115819     5.860287  -0.10121429  -0.10121429        47040 
  301500   0.99887429    4.3525384    1.4982646    5.8508031   -0.1134647   -0.1134647        47040 
  302000   0.99611535    4.3339106    1.4941263    5.8280369  -0.13542923  -0.13542923        47040 
  302500    0.9944309    4.3420377    1.4915997    5.8336374 -0.088316452 -0.088316452        47040 
  303000     1.001375    4.3316262    1.5020156    5.8336418  -0.15524887  -0.15524887        47040 
  303500   0.99712098    4.3446354    1.4956347    5.8402701  -0.10764538  -0.10764538        47040 
  304000   0.99726369    4.3380473    1.4958488     5.833896  -0.12937371  -0.12937371        47040 
  304500   0.99953094    4.3426416    1.4992496    5.8418911  -0.12127176  -0.12127176        47040 
  305000    1.0003166    4.3558929    1.5004281     5.856321  -0.10927835  -0.10927835        47040 
  305500   0.99668162    4.3551586    1.4949757    5.8501343  -0.13655976  -0.13655976        47040 
  306000    1.0028162    4.3425084    1.5041773    5.8466857 -0.096621057 -0.096621057        47040 
  306500    1.0024447    4.3275154      1.50362    5.8311354 -0.070718108 -0.070718108        47040 
  307000   0.99763624    4.3347624    1.4964076      5.83117 -0.098600147 -0.098600147        47040 
  307500   0.99834835    4.3340019    1.4974757    5.8314777 -0.079001368 -0.079001368        47040 
  308000    1.0054346    4.3316599    1.5081048    5.8397647  -0.15104825  -0.15104825        47040 
  308500    1.0056425    4.3332791    1.5084166    5.8416957    -0.130653    -0.130653        47040 
  309000   0.99732803    4.3563505    1.4959453    5.8522958  -0.14102581  -0.14102581        47040 
  309500    1.0050384    4.3557779    1.5075104    5.8632883 -0.094766085 -0.094766085        47040 
  310000    1.0063791    4.3642416    1.5095215    5.8737631 -0.075370725 -0.075370725        47040 
  310500    1.0026552     4.358607    1.5039358    5.8625428 -0.093360651 -0.093360651        47040 
  311000   0.99805554    4.3469108    1.4970365    5.8439473 -0.066035375 -0.066035375        47040 
  311500   0.99794833    4.3452436    1.4968757    5.8421193  -0.17498627  -0.17498627        47040 
  312000   0.99414572    4.3344476     1.491172    5.8256196  -0.16830648  -0.16830648        47040 
  312500    1.0019448    4.3251638    1.5028702     5.828034  -0.10260406  -0.10260406        47040 
  313000   0.99784184    4.3341784     1.496716    5.8308944   -0.1249169   -0.1249169        47040 
  313500   0.99408482    4.3238274    1.4910806     5.814908  -0.14406986  -0.14406986        47040 
  314000    1.0060019    4.3437564    1.5089558    5.8527121 -0.083269004 -0.083269004        47040 
  314500    1.0045543    4.3495368    1.5067843    5.8563211   -0.1038928   -0.1038928        47040 
  315000     1.006111    4.3578557    1.5091193    5.8669751 -0.075039096 -0.075039096        47040 
  315500   0.99143187    4.3397676    1.4871013    5.8268689 -0.087783559 -0.087783559        47040 
  316000   0.99976586    4.3320921    1.4996019     5.831694 -0.066846424 -0.066846424        47040 
  316500    1.0004848    4.3506926    1.5006804     5.851373  -0.09763967  -0.09763967        47040 
  317000    1.0023699    4.3469704    1.5035078    5.8504782 -0.094331614 -0.094331614        47040 
  317500    1.0087627    4.3311184    1.5130967    5.8442151 -0.067548707 -0.067548707        47040 
  318000    1.0003398    4.3370438    1.5004629    5.8375067 -0.098755655 -0.098755655        47040 
  318500   0.99802466    4.3396434    1.4969902    5.8366336    -0.112908    -0.112908        47040 
  319000    1.0029521    4.3412994    1.5043811    5.8456806  -0.16138848  -0.16138848        47040 
  319500   0.99951716    4.3429273    1.4992289    5.8421562  -0.16288447  -0.16288447        47040 
  320000    1.0042365    4.3408943    1.5063076    5.8472019 -0.071632812 -0.071632812        47040 
  320500   0.99873455    4.3584833     1.498055    5.8565383  -0.10550989  -0.10550989        47040 
  321000   0.99558967    4.3515171    1.4933378     5.844855  -0.14054733  -0.14054733        47040 
  321500   0.99805924    4.3389987    1.4970421    5.8360407 -0.082365611 -0.082365611        47040 
  322000   0.99857616    4.3281717    1.4978174    5.8259891   -0.1783448   -0.1783448        47040 
  322500   0.99833883    4.3269094    1.4974614    5.8243708  -0.16344005  -0.16344005        47040 
  323000   0.98907961    4.3326218     1.483573    5.8161948  -0.12510584  -0.12510584        47040 
  323500   0.99636829    4.3316053    1.4945057     5.826111 -0.064197507 -0.064197507        47040 
  324000    1.0001967    4.3333832    1.5002482    5.8336314  -0.10383471  -0.10383471        47040 
  324500   0.99787688     4.336255    1.4967685    5.8330236  -0.15943864  -0.15943864        47040 
  325000   0.99831725    4.3533975    1.4974291    5.8508266 -0.074011772 -0.074011772        47040 
  325500    1.0078719     4.340585    1.5117606    5.8523456  -0.13022593  -0.13022593        47040 
  326000    1.0088727    4.3428144    1.5132618    5.8560762 -0.079584264 -0.079584264        47040 
  326500   0.99995605    4.3447064    1.4998872    5.8445936  -0.08807909  -0.08807909        47040 
  327000    1.0015738    4.3373389    1.5023138    5.8396527 -0.084906822 -0.084906822        47040 
  327500   0.99960087    4.3404901    1.4993545    5.8398446 -0.068099494 -0.068099494        47040 
  328000   0.99699225    4.3376488    1.4954416    5.8330905   -0.1148267   -0.1148267        47040 
  328500   0.99376733    4.3517777    1.4906044    5.8423821  -0.11539293  -0.11539293        47040 
  329000   0.99570139    4.3355852    1.4935054    5.8290907 -0.076766218 -0.076766218        47040 
  329500   0.99275167    4.3398474     1.489081    5.8289283 -0.088910255 -0.088910255        47040 
  330000    0.9968167    4.3375463    1.4951783    5.8327246  -0.11796829  -0.11796829        47040 
  330500    1.0019481     4.344491    1.5028752    5.8473662  -0.16397607  -0.16397607        47040 
  331000    1.0034987    4.3493997    1.5052011    5.8546008   -0.1643156   -0.1643156        47040 
  331500     1.008777    4.3300495    1.5131182    5.8431677 -0.052551901 -0.052551901        47040 
  332000   0.99833791    4.3353329    1.4974601    5.8327929 -0.061374788 -0.061374788        47040 
  332500   0.99148414    4.3438307    1.4871797    5.8310104 -0.054711381 -0.054711381        47040 
  333000    1.0007318    4.3334624    1.5010507    5.8345132  -0.13416265  -0.13416265        47040 
  333500   0.99672725    4.3482256    1.4950442    5.8432697 -0.070028121 -0.070028121        47040 
  334000    1.0138562    4.3328054    1.5207367    5.8535422 -0.066126044 -0.066126044        47040 
  334500    1.0059194    4.3372288    1.5088319    5.8460607 -0.044146753 -0.044146753        47040 
  335000   0.98755482    4.3361691    1.4812859    5.8174551  -0.10831339  -0.10831339        47040 
  335500   0.98859806    4.3380919    1.4828507    5.8209426  -0.11989016  -0.11989016        47040 
  336000    1.0026855    4.3275491    1.5039813    5.8315304 -0.061024603 -0.061024603        47040 
  336500    1.0032052    4.3311967    1.5047607    5.8359574  -0.11307165  -0.11307165        47040 
  337000    1.0009566    4.3434264     1.501388    5.8448144 -0.047083424 -0.047083424        47040 
  337500    1.0078092    4.3383622    1.5116666    5.8500288 -0.070348272 -0.070348272        47040 
  338000   0.99996814    4.3471045    1.4999053    5.8470098 -0.052778797 -0.052778797        47040 
  338500     1.004395     4.345833    1.5065454    5.8523784  -0.10125272  -0.10125272        47040 
  339000    1.0013637    4.3462086    1.5019986    5.8482072  -0.09669618  -0.09669618        47040 
  339500   0.99963053    4.3384978    1.4993989    5.8378968  -0.11349326  -0.11349326        47040 
  340000   0.99911056    4.3293092     1.498619    5.8279282 -0.076158421 -0.076158421        47040 
  340500   0.99761808     4.329572    1.4963804    5.8259524  -0.11365038  -0.11365038        47040 
  341000    1.0026089    4.3197133    1.5038664    5.8235796  -0.09280138  -0.09280138        47040 
  341500    0.9998824    4.3413009    1.4997767    5.8410776 -0.079758563 -0.079758563        47040 
  342000   0.99455196    4.3440315    1.4917813    5.8358128  -0.15291492  -0.15291492        47040 
  342500   0.99483747     4.342636    1.4922096    5.8348456 -0.069168147 -0.069168147        47040 
  343000   0.99990664    4.3482979    1.4998131     5.848111  -0.13872589  -0.13872589        47040 
  343500   0.99819326    4.3602263    1.4972431    5.8574694 -0.043200868 -0.043200868        47040 
  344000   0.99868516    4.3537131    1.4979809     5.851694  -0.11320866  -0.11320866        47040 
  344500   0.99854034    4.3535087    1.4977637    5.8512724 -0.076732569 -0.076732569        47040 
  345000    1.0010347    4.3443276    1.5015051    5.8458328  -0.12827501  -0.12827501        47040 
  345500     1.000068    4.3361673    1.5000552    5.8362224 -0.093377714 -0.093377714        47040 
  346000    0.9967312    4.3394499    1.4950501       5.8345  -0.13850338  -0.13850338        47040 
  346500   0.99491793    4.3440921    1.4923303    5.8364224  -0.12076543  -0.12076543        47040 
  347000   0.99768147    4.3250684    1.4964754    5.8215438  -0.13544024  -0.13544024        47040 
  347500    1.0058851    4.3231809    1.5087805    5.8319615  -0.11423536  -0.11423536        47040 
  348000     1.008856    4.3131579    1.5132367    5.8263946  -0.10657444  -0.10657444        47040 
  348500    1.0009946    4.3390166     1.501445    5.8404616 -7.2639349e-05 -7.2639349e-05        47040 
  349000   0.99745876    4.3427903    1.4961414    5.8389317 -0.097016866 -0.097016866        47040 
  349500    1.0004493    4.3327449     1.500627     5.833372 -0.088123433 -0.088123433        47040 
  350000    1.0019977    4.3327223    1.5029496    5.8356719  -0.13209366  -0.13209366        47040 
  350500    1.0011965    4.3416331    1.5017479     5.843381  -0.11918069  -0.11918069        47040 
  351000   0.99960523    4.3567262     1.499361    5.8560872  -0.12993854  -0.12993854        47040 
  351500    1.0088596    4.3554507    1.5132421    5.8686928  -0.12104605  -0.12104605        47040 
  352000   0.99957833     4.352866    1.4993206    5.8521867 -0.083098672 -0.083098672        47040 
  352500    1.0017037    4.3571138    1.5025086    5.8596224  -0.10241357  -0.10241357        47040 
  353000    1.0016975    4.3477785    1.5024993    5.8502777  -0.09798378  -0.09798378        47040 
  353500    1.0001666    4.3401207     1.500203    5.8403237  -0.10147139  -0.10147139        47040 
  354000    1.0017054     4.346766    1.5025111    5.8492771 -0.088028573 -0.088028573        47040 
  354500    1.0028683    4.3351556    1.5042554     5.839411 -0.070168235 -0.070168235        47040 
  355000     1.004059    4.3277517    1.5060415    5.8337932  -0.13718324  -0.13718324        47040 
  355500    1.0074778     4.336563    1.5111695    5.8477325 -0.029355368 -0.029355368        47040 
  356000    1.0057387    4.3450394    1.5085609    5.8536003   -0.1373317   -0.1373317        47040 
  356500    1.0015829    4.3477919    1.5023274    5.8501193  -0.12572218  -0.12572218        47040 
  357000     1.000142    4.3535261    1.5001661    5.8536922  -0.12157813  -0.12157813        47040 
  357500    1.0092011    4.3446384    1.5137544    5.8583928  -0.13195743  -0.13195743        47040 
  358000     1.012047    4.3504382    1.5180231    5.8684613  -0.13065734  -0.13065734        47040 
  358500   0.99896931    4.3386306    1.4984071    5.8370378 -0.098331364 -0.098331364        47040 
  359000   0.99142657    4.3483669    1.4870934    5.8354603 -0.042547023 -0.042547023        47040 
  359500   0.99556559     4.335152    1.4933017    5.8284537  -0.11611648  -0.11611648        47040 
  360000    0.9911026    4.3315057    1.4866074    5.8181131  -0.11703724  -0.11703724        47040 
  360500   0.99758277    4.3469969    1.4963274    5.8433243  -0.10991075  -0.10991075        47040 
  361000    1.0054284     4.341617    1.5080955    5.8497125 -0.081327912 -0.081327912        47040 
  361500   0.99867876    4.3430178    1.4979713    5.8409891  -0.13765748  -0.13765748        47040 
  362000   0.99808221    4.3403507    1.4970765    5.8374272 -0.075474886 -0.075474886        47040 
  362500   0.99334378    4.3447929    1.4899691     5.834762 -0.077541464 -0.077541464        47040 
  363000    1.0034045    4.3241873    1.5050597     5.829247   -0.1481768   -0.1481768        47040 
  363500   0.99154622    4.3362461    1.4872729     5.823519  -0.09239791  -0.09239791        47040 
  364000   0.99370173    4.3321334     1.490506    5.8226394  -0.13214181  -0.13214181        47040 
  364500   0.99259721    4.3334659    1.4888493    5.8223152  -0.12488698  -0.12488698        47040 
  365000    1.0031877    4.3350805    1.5047345     5.839815 -0.063703417 -0.063703417        47040 
  365500    1.0049789    4.3264163    1.5074212    5.8338376 -0.073990551 -0.073990551        47040 
  366000    1.0007526    4.3252325    1.5010819    5.8263144 -0.039321777 -0.039321777        47040 
  366500    1.0000149    4.3191328    1.4999754    5.8191082 -0.096797655 -0.096797655        47040 
  367000   0.99405113    4.3049158    1.4910301    5.7959459   -0.1117567   -0.1117567        47040 
  367500   0.99808695    4.3148721    1.4970836    5.8119557 -0.021819385 -0.021819385        47040 
  368000   0.99371817    4.3260828    1.4905307    5.8166135 -0.048670453 -0.048670453        47040 
  368500    1.0031375    4.3298841    1.5046592    5.8345433 -0.086475691 -0.086475691        47040 
  369000    1.0041328    4.3241022    1.5061521    5.8302543 -0.091890771 -0.091890771        47040 
  369500   0.99923346      4.33084    1.4988034    5.8296434 -0.076720435 -0.076720435        47040 
  370000   0.99603686    4.3366723    1.4940086    5.8306809 -0.060610586 -0.060610586        47040 
  370500   0.99197011     4.336717    1.4879087    5.8246256 -0.077143052 -0.077143052        47040 
  371000   0.99509307    4.3404684     1.492593    5.8330614  -0.12507983  -0.12507983        47040 
  371500    1.0041491    4.3413533    1.5061766    5.8475299 -0.029223995 -0.029223995        47040 
  372000   0.99997987    4.3446377    1.4999229    5.8445606  -0.05071853  -0.05071853        47040 
  372500    1.0072779    4.3310269    1.5108696    5.8418965  -0.13157883  -0.13157883        47040 
  373000   0.99743889    4.3467727    1.4961116    5.8428843 -0.093281176 -0.093281176        47040 
  373500    1.0005358    4.3347441    1.5007569     5.835501 -0.059239506 -0.059239506        47040 
  374000    1.0034024    4.3367828    1.5050565    5.8418393 -0.053334744 -0.053334744        47040 
  374500    1.0026191    4.3298269    1.5038816    5.8337085 -0.034468223 -0.034468223        47040 
  375000    1.0023418    4.3395324    1.5034658    5.8429981  -0.11659916  -0.11659916        47040 
  375500    1.0014378    4.3430792    1.5021097     5.845189  -0.13371493  -0.13371493        47040 
  376000    1.0023522    4.3435762    1.5034813    5.8470575  -0.11710713  -0.11710713        47040 
  376500    1.0023765    4.3439067    1.5035177    5.8474244  -0.12629448  -0.12629448        47040 
  377000    1.0028828    4.3362563    1.5042772    5.8405335  -0.04734555  -0.04734555        47040 
  377500   0.99898984     4.332494    1.4984379     5.830932 -0.099779626 -0.099779626        47040 
  378000    1.0035011    4.3269849    1.5052046    5.8321894 -0.015901085 -0.015901085        47040 
  378500   0.99596363    4.3414864    1.4938988    5.8353852 -0.021302372 -0.021302372        47040 
  379000     1.003073    4.3343005    1.5045624    5.8388629   -0.0969171   -0.0969171        47040 
  379500    1.0015809    4.3499921    1.5023243    5.8523164 -0.069534115 -0.069534115        47040 
  380000    1.0011939    4.3451432    1.5017439    5.8468872 -0.069228609 -0.069228609        47040 
  380500   0.99830568    4.3526113    1.4974117     5.850023  -0.15810974  -0.15810974        47040 
  381000    1.0026579    4.3603351    1.5039398    5.8642749 -0.094993346 -0.094993346        47040 
[...]
 1907500    1.0045792    4.3425629    1.5068217    5.8493846   -0.1122237   -0.1122237        47040 
 1908000   0.99249221    4.3442591    1.4886918    5.8329509 -0.048857061 -0.048857061        47040 
 1908500   0.99855547    4.3418231    1.4977864    5.8396095 -0.048673135 -0.048673135        47040 
 1909000    1.0037015    4.3289594    1.5055053    5.8344647 -0.094636629 -0.094636629        47040 
 1909500   0.99792064     4.348717    1.4968342    5.8455512 -0.085964915 -0.085964915        47040 
 1910000   0.99960447    4.3436853    1.4993598    5.8430452 -0.087435296 -0.087435296        47040 
 1910500     1.008828    4.3298759    1.5131947    5.8430706 -0.022551188 -0.022551188        47040 
 1911000   0.99655805    4.3328089    1.4947904    5.8275993  -0.11068424  -0.11068424        47040 
 1911500   0.99833411    4.3317139    1.4974544    5.8291682 -0.084300657 -0.084300657        47040 
 1912000     0.995617    4.3512988    1.4933788    5.8446777 -0.094829528 -0.094829528        47040 
 1912500    1.0043128    4.3522604    1.5064221    5.8586825 -0.089155014 -0.089155014        47040 
 1913000    1.0011526    4.3651503     1.501682    5.8668323  -0.16315993  -0.16315993        47040 
 1913500    1.0046224    4.3558739    1.5068866    5.8627605  -0.14261069  -0.14261069        47040 
 1914000    1.0051788    4.3625987     1.507721    5.8703198  -0.13710385  -0.13710385        47040 
 1914500    1.0018439    4.3596899    1.5027189    5.8624088  -0.11137503  -0.11137503        47040 
 1915000    1.0028826     4.356844    1.5042769    5.8611209 -0.092566326 -0.092566326        47040 
 1915500    1.0015972    4.3470883    1.5023488    5.8494371  -0.13020682  -0.13020682        47040 
 1916000    1.0069329     4.336959    1.5103521    5.8473111  -0.13611549  -0.13611549        47040 
 1916500    1.0046576    4.3495048    1.5069393    5.8564441  -0.12570045  -0.12570045        47040 
 1917000     1.000682    4.3423084    1.5009761    5.8432845  -0.11104326  -0.11104326        47040 
 1917500    1.0028764    4.3495425    1.5042676    5.8538101  -0.11411572  -0.11411572        47040 
 1918000    1.0013262    4.3479075    1.5019424    5.8498499 -0.087429623 -0.087429623        47040 
 1918500    1.0001563    4.3480238    1.5001875    5.8482113  -0.12074903  -0.12074903        47040 
 1919000   0.99581045    4.3490413     1.493669    5.8427103  -0.17396123  -0.17396123        47040 
 1919500   0.98970513    4.3531766    1.4845113    5.8376879  -0.15899522  -0.15899522        47040 
 1920000   0.99560504    4.3539447    1.4933609    5.8473056  -0.12264158  -0.12264158        47040 
 1920500    1.0073751    4.3300632    1.5110154    5.8410786  -0.15186696  -0.15186696        47040 
 1921000    1.0059423     4.341599    1.5088663    5.8504653 -0.049786386 -0.049786386        47040 
 1921500    1.0035277    4.3419549    1.5052444    5.8471993   -0.1557627   -0.1557627        47040 
 1922000     1.004721     4.334845    1.5070344    5.8418794 -0.075543677 -0.075543677        47040 
 1922500   0.99507774     4.336542      1.49257    5.8291119  -0.14918303  -0.14918303        47040 
 1923000    0.9931233    4.3467644    1.4896384    5.8364028  -0.19392482  -0.19392482        47040 
 1923500    1.0038848    4.3383141    1.5057801    5.8440942   -0.1116255   -0.1116255        47040 
 1924000    1.0038562    4.3338794    1.5057372    5.8396166   -0.1711185   -0.1711185        47040 
 1924500   0.99873448    4.3389264    1.4980549    5.8369813  -0.12194638  -0.12194638        47040 
 1925000   0.99792717    4.3207273     1.496844    5.8175713 -0.060938692 -0.060938692        47040 
 1925500   0.99540258    4.3330426    1.4930572    5.8260998 -0.039974353 -0.039974353        47040 
 1926000   0.99472126    4.3344041    1.4920353    5.8264394   -0.1293302   -0.1293302        47040 
 1926500     1.003822    4.3227697     1.505686    5.8284557 -0.080405188 -0.080405188        47040 
 1927000   0.99995575    4.3313511    1.4998868    5.8312379 -0.071512039 -0.071512039        47040 
 1927500    1.0004967    4.3511806    1.5006981    5.8518788 -0.080901484 -0.080901484        47040 
 1928000    1.0004547    4.3549054    1.5006351    5.8555405  -0.11890579  -0.11890579        47040 
 1928500    1.0041282    4.3554836    1.5061452    5.8616288  -0.18033355  -0.18033355        47040 
 1929000    1.0023877    4.3586144    1.5035346     5.862149  -0.08452814  -0.08452814        47040 
 1929500   0.99773339    4.3550833    1.4965533    5.8516366 -0.097143383 -0.097143383        47040 
 1930000   0.99992382    4.3391449    1.4998389    5.8389837 -0.088172113 -0.088172113        47040 
 1930500   0.99698874    4.3299956    1.4954364    5.8254319 -0.065325627 -0.065325627        47040 
 1931000    1.0004541    4.3295801    1.5006343    5.8302144 -0.092802383 -0.092802383        47040 
 1931500    0.9975298    4.3211082    1.4962479    5.8173562 -0.026684821 -0.026684821        47040 
 1932000   0.99871966    4.3301617    1.4980327    5.8281944 -0.023602721 -0.023602721        47040 
 1932500   0.99760158     4.329605    1.4963556    5.8259607 -0.063563912 -0.063563912        47040 
 1933000    1.0033429    4.3325797    1.5049673    5.8375471  -0.12469817  -0.12469817        47040 
 1933500   0.99908826    4.3402818    1.4985856    5.8388673 -0.092251281 -0.092251281        47040 
 1934000    0.9963441    4.3416591    1.4944694    5.8361286  -0.16411776  -0.16411776        47040 
 1934500   0.99924467    4.3420989    1.4988202    5.8409191 -0.096880826 -0.096880826        47040 
 1935000    1.0009828    4.3538649    1.5014273    5.8552922 -0.093430261 -0.093430261        47040 
 1935500    1.0037693    4.3493369    1.5056068    5.8549438  -0.12918038  -0.12918038        47040 
 1936000   0.99694022     4.348556    1.4953636    5.8439196  -0.15006999  -0.15006999        47040 
 1936500   0.99723521    4.3576285    1.4958061    5.8534345   -0.1524572   -0.1524572        47040 
 1937000   0.99891736    4.3520368    1.4983292     5.850366  -0.15548802  -0.15548802        47040 
 1937500   0.99600152    4.3497102    1.4939556    5.8436658 -0.082503271 -0.082503271        47040 
 1938000   0.99582313    4.3370048     1.493688    5.8306928  -0.10792499  -0.10792499        47040 
 1938500   0.99820067    4.3163977    1.4972542    5.8136519  -0.11099337  -0.11099337        47040 
 1939000    1.0022204    4.3211687    1.5032837    5.8244524 -0.014829469 -0.014829469        47040 
 1939500   0.99937801    4.3317461    1.4990202    5.8307663  -0.07382897  -0.07382897        47040 
 1940000    1.0008954    4.3450416    1.5012963    5.8463379  -0.10388808  -0.10388808        47040 
 1940500    1.0018255    4.3485439    1.5026913    5.8512352 -0.090883698 -0.090883698        47040 
 1941000   0.99792846    4.3620767    1.4968459    5.8589226    -0.107376    -0.107376        47040 
 1941500    1.0068933     4.361848    1.5102927    5.8721407  -0.16606676  -0.16606676        47040 
 1942000   0.99488801    4.3551341    1.4922854    5.8474195  -0.10149758  -0.10149758        47040 
 1942500    1.0004179    4.3413151      1.50058    5.8418951 -0.057960088 -0.057960088        47040 
 1943000    1.0028113    4.3278744      1.50417    5.8320443  -0.12253654  -0.12253654        47040 
 1943500    1.0020717    4.3266122    1.5030605    5.8296727 -0.088618101 -0.088618101        47040 
 1944000   0.99767744    4.3388763    1.4964694    5.8353457  -0.11017219  -0.11017219        47040 
 1944500   0.99512235    4.3349874    1.4926369    5.8276243 -0.072963754 -0.072963754        47040 
 1945000   0.99369069    4.3436492    1.4904895    5.8341387  -0.17092833  -0.17092833        47040 
 1945500   0.99996178    4.3487022    1.4998958     5.848598  -0.12020998  -0.12020998        47040 
 1946000     1.002049    4.3612279    1.5030265    5.8642544  -0.14618882  -0.14618882        47040 
 1946500   0.99902297    4.3586714    1.4984876     5.857159 -0.061645227 -0.061645227        47040 
 1947000    1.0005256    4.3545199    1.5007415    5.8552614 -0.021197601 -0.021197601        47040 
 1947500   0.99441052    4.3409998    1.4915692    5.8325689   -0.1285121   -0.1285121        47040 
 1948000   0.99283132    4.3435845    1.4892004     5.832785 -0.058072467 -0.058072467        47040 
 1948500    1.0027679    4.3402244    1.5041048    5.8443292  -0.04593181  -0.04593181        47040 
 1949000    1.0053973    4.3369007    1.5080488    5.8449495 -0.068710702 -0.068710702        47040 
 1949500     1.000231    4.3428266    1.5002996    5.8431262 -0.058690836 -0.058690836        47040 
 1950000   0.99586082    4.3459282    1.4937446    5.8396727  -0.12111564  -0.12111564        47040 
 1950500   0.99302698    4.3377022    1.4894939    5.8271961  -0.10632344  -0.10632344        47040 
 1951000   0.99514192    4.3377892    1.4926662    5.8304555  -0.13056209  -0.13056209        47040 
 1951500   0.99726858     4.343075    1.4958561    5.8389311  -0.10538065  -0.10538065        47040 
 1952000     1.003736     4.339333    1.5055569    5.8448899 -0.088252111 -0.088252111        47040 
 1952500    1.0032489    4.3405827    1.5048264    5.8454091 -0.098314023 -0.098314023        47040 
 1953000    1.0027398    4.3529681    1.5040627    5.8570308  -0.12951544  -0.12951544        47040 
 1953500   0.99643033    4.3485369    1.4945988    5.8431357 -0.065830042 -0.065830042        47040 
 1954000    1.0029588    4.3391147    1.5043912    5.8435059  -0.08562908  -0.08562908        47040 
 1954500    1.0029941    4.3394309    1.5044442    5.8438751  -0.12257866  -0.12257866        47040 
 1955000   0.99485169    4.3470728    1.4922309    5.8393037  -0.14534902  -0.14534902        47040 
 1955500   0.99886513    4.3489374    1.4982509    5.8471883  -0.13587517  -0.13587517        47040 
 1956000    1.0036245    4.3540243    1.5053897     5.859414 -0.082021293 -0.082021293        47040 
 1956500    1.0034932    4.3464789    1.5051928    5.8516717  -0.12700884  -0.12700884        47040 
 1957000   0.99959214    4.3540567    1.4993414     5.853398 -0.065279585 -0.065279585        47040 
 1957500    1.0091966    4.3459848    1.5137476    5.8597324 -0.037356193 -0.037356193        47040 
 1958000    1.0142893    4.3399177    1.5213864    5.8613042 -0.065425767 -0.065425767        47040 
 1958500    1.0062658    4.3422412    1.5093516    5.8515927  -0.12864254  -0.12864254        47040 
 1959000   0.99583413    4.3516837    1.4937045    5.8453883 -0.099462996 -0.099462996        47040 
 1959500   0.99890375    4.3575509    1.4983088    5.8558597   -0.1091116   -0.1091116        47040 
 1960000    1.0025041    4.3495388    1.5037091    5.8532479   -0.1519687   -0.1519687        47040 
 1960500    1.0028927      4.34343    1.5042921    5.8477221  -0.13395095  -0.13395095        47040 
 1961000    1.0080971     4.342274    1.5120983    5.8543724  -0.08154507  -0.08154507        47040 
 1961500    1.0007318    4.3415855    1.5010508    5.8426363  -0.12575419  -0.12575419        47040 
 1962000    0.9911147    4.3336383    1.4866256    5.8202639  -0.12686196  -0.12686196        47040 
 1962500    0.9954638    4.3316701     1.493149    5.8248191   -0.1309453   -0.1309453        47040 
 1963000   0.99768563    4.3285139    1.4964817    5.8249955  -0.15346683  -0.15346683        47040 
 1963500    1.0010779    4.3291204    1.5015699    5.8306904  -0.13161887  -0.13161887        47040 
 1964000    1.0027195    4.3332183    1.5040322    5.8372505 -0.026947275 -0.026947275        47040 
 1964500    1.0009649    4.3375566    1.5014005    5.8389571  -0.06448825  -0.06448825        47040 
 1965000   0.99839065    4.3444901    1.4975392    5.8420293 -0.099692987 -0.099692987        47040 
 1965500   0.99862046    4.3448914    1.4978839    5.8427752   -0.1150179   -0.1150179        47040 
 1966000   0.99877757    4.3500688    1.4981195    5.8481883  -0.12288846  -0.12288846        47040 
 1966500    1.0031805     4.351027    1.5047237    5.8557507 -0.069457592 -0.069457592        47040 
 1967000    0.9994447    4.3483257    1.4991202    5.8474459 -0.098862779 -0.098862779        47040 
 1967500   0.99746367    4.3487243    1.4961487    5.8448731  -0.12959313  -0.12959313        47040 
 1968000    1.0006025    4.3385781    1.5008569     5.839435 -0.094701957 -0.094701957        47040 
 1968500    1.0013938    4.3322495    1.5020437    5.8342932  -0.20065996  -0.20065996        47040 
 1969000   0.99933234    4.3434587    1.4989517    5.8424104 -0.069053097 -0.069053097        47040 
 1969500   0.99730355    4.3366461    1.4959086    5.8325547 -0.084329734 -0.084329734        47040 
 1970000    1.0023819    4.3315297    1.5035259    5.8350556   -0.1138036   -0.1138036        47040 
 1970500    1.0058745    4.3509475    1.5087646    5.8597121 -0.072338114 -0.072338114        47040 
 1971000    1.0054185    4.3466916    1.5080806    5.8547722 -0.085702795 -0.085702795        47040 
 1971500    1.0009283    4.3403126    1.5013455    5.8416581  -0.13324747  -0.13324747        47040 
 1972000    0.9948524     4.347051     1.492232     5.839283   -0.1369932   -0.1369932        47040 
 1972500   0.99583078    4.3458001    1.4936995    5.8394996  -0.18021101  -0.18021101        47040 
 1973000    1.0007041    4.3272018    1.5010093    5.8282111  -0.10150937  -0.10150937        47040 
 1973500   0.99654705    4.3381827    1.4947739    5.8329566  -0.10140676  -0.10140676        47040 
 1974000   0.99442913    4.3393574    1.4915971    5.8309545 -0.037605921 -0.037605921        47040 
 1974500   0.99760306    4.3155143    1.4963578    5.8118721 -0.039911703 -0.039911703        47040 
 1975000   0.98696973    4.3332226    1.4804083    5.8136309 -0.034887064 -0.034887064        47040 
 1975500   0.99536949    4.3410463    1.4930076    5.8340539 -0.072213438 -0.072213438        47040 
 1976000    0.9999599    4.3276885     1.499893    5.8275815  -0.11923779  -0.11923779        47040 
 1976500   0.99486183    4.3326428    1.4922461    5.8248889  -0.10147716  -0.10147716        47040 
 1977000   0.99698407    4.3287761    1.4954294    5.8242055   -0.1154525   -0.1154525        47040 
 1977500    1.0016925    4.3259284    1.5024919    5.8284203  -0.10073979  -0.10073979        47040 
 1978000   0.99532987    4.3261643    1.4929482    5.8191125  -0.11878288  -0.11878288        47040 
 1978500   0.99609934    4.3292016    1.4941023    5.8233039   -0.1099207   -0.1099207        47040 
 1979000   0.99638348    4.3401822    1.4945285    5.8347108  -0.10188036  -0.10188036        47040 
 1979500   0.99534322    4.3491877    1.4929682    5.8421558  -0.10566506  -0.10566506        47040 
 1980000   0.99958039    4.3480325    1.4993237    5.8473562 -0.069802687 -0.069802687        47040 
 1980500   0.99940554     4.350139    1.4990615    5.8492005  -0.09072018  -0.09072018        47040 
 1981000   0.99912282    4.3516681    1.4986374    5.8503055 -0.069209558 -0.069209558        47040 
 1981500    1.0079965    4.3437936    1.5119475    5.8557412  -0.12114583  -0.12114583        47040 
 1982000    1.0020167    4.3536994    1.5029781    5.8566774 -0.021464278 -0.021464278        47040 
 1982500    1.0055411    4.3482753    1.5082645    5.8565398 -0.097807557 -0.097807557        47040 
 1983000   0.99787653    4.3414796     1.496768    5.8382476 -0.014698382 -0.014698382        47040 
 1983500    1.0008542    4.3293449    1.5012344    5.8305793  -0.10204995  -0.10204995        47040 
 1984000   0.99825153     4.338579    1.4973305    5.8359095 -0.086408614 -0.086408614        47040 
 1984500   0.99137577    4.3476745    1.4870172    5.8346916 -0.063610253 -0.063610253        47040 
 1985000   0.99742126    4.3271697    1.4960851    5.8232548  -0.13912124  -0.13912124        47040 
 1985500    1.0079162    4.3525761    1.5118271    5.8644032 -0.099207441 -0.099207441        47040 
 1986000    1.0005429     4.337436    1.5007674    5.8382034  -0.15710712  -0.15710712        47040 
 1986500    1.0001914    4.3425404    1.5002402    5.8427806  -0.10013951  -0.10013951        47040 
 1987000     1.001751    4.3608007    1.5025796    5.8633803 -0.046852333 -0.046852333        47040 
 1987500    1.0016175    4.3525124    1.5023793    5.8548917 -0.091591885 -0.091591885        47040 
 1988000   0.99447575    4.3483856     1.491667    5.8400526 -0.066789011 -0.066789011        47040 
 1988500    1.0013632    4.3366443    1.5019979    5.8386422   -0.0663817   -0.0663817        47040 
 1989000   0.99615356    4.3445897    1.4941836    5.8387733  -0.04171714  -0.04171714        47040 
 1989500    1.0019292    4.3246846    1.5028468    5.8275314 -0.078311608 -0.078311608        47040 
 1990000    1.0046387    4.3218852    1.5069109    5.8287961  -0.12004791  -0.12004791        47040 
 1990500    1.0063775    4.3330274     1.509519    5.8425464  -0.11278675  -0.11278675        47040 
 1991000    1.0001477    4.3258489    1.5001746    5.8260235 -0.066922771 -0.066922771        47040 
 1991500   0.99318123     4.325996    1.4897253    5.8157213 -0.080922865 -0.080922865        47040 
 1992000    1.0007641    4.3352051    1.5010992    5.8363043  -0.11306691  -0.11306691        47040 
 1992500   0.99729187    4.3374294    1.4958911    5.8333204  -0.13879354  -0.13879354        47040 
 1993000    1.0006684    4.3280553    1.5009558     5.829011  -0.13585572  -0.13585572        47040 
 1993500     1.002693    4.3352063    1.5039925    5.8391987 -0.054201954 -0.054201954        47040 
 1994000    1.0048655     4.324493    1.5072511    5.8317441 -0.062828732 -0.062828732        47040 
 1994500    1.0038778    4.3324811    1.5057696    5.8382507 -0.047276907 -0.047276907        47040 
 1995000    1.0037501    4.3265381    1.5055781    5.8321162 -0.082055591 -0.082055591        47040 
 1995500   0.99867923    4.3358979     1.497972    5.8338699  -0.07568975  -0.07568975        47040 
 1996000   0.98688666    4.3319824    1.4802837    5.8122662  -0.11370025  -0.11370025        47040 
 1996500   0.99461508    4.3400138     1.491876    5.8318899  -0.13196113  -0.13196113        47040 
 1997000   0.99394895    4.3454769    1.4908768    5.8363537  -0.09741806  -0.09741806        47040 
 1997500    1.0007598    4.3392976    1.5010927    5.8403904 -0.072418228 -0.072418228        47040 
 1998000   0.99825384    4.3362932     1.497334    5.8336272 -0.029309385 -0.029309385        47040 
 1998500   0.99547139    4.3383669    1.4931604    5.8315273 -0.099113283 -0.099113283        47040 
 1999000   0.99526725    4.3469636    1.4928542    5.8398179  -0.15976742  -0.15976742        47040 
 1999500   0.99936443    4.3412306    1.4989998    5.8402304  -0.14211402  -0.14211402        47040 
 2000000    1.0099407    4.3516288    1.5148637    5.8664925 -0.098840658 -0.098840658        47040 
Loop time of 35432 on 8 procs for 2000000 steps with 32000 atoms

Performance: 14630.852 tau/day, 56.446 timesteps/s
99.8% CPU use with 1 MPI tasks x 8 OpenMP threads

MPI task timing breakdown:
Section |  min time  |  avg time  |  max time  |%varavg| %total
---------------------------------------------------------------
Pair    | 25378      | 25378      | 25378      |   0.0 | 71.62
Bond    | 916.74     | 916.74     | 916.74     |   0.0 |  2.59
Neigh   | 7620.1     | 7620.1     | 7620.1     |   0.0 | 21.51
Comm    | 314.2      | 314.2      | 314.2      |   0.0 |  0.89
Output  | 14.634     | 14.634     | 14.634     |   0.0 |  0.04
Modify  | 905.42     | 905.42     | 905.42     |   0.0 |  2.56
Other   |            | 283.1      |            |       |  0.80

Nlocal:    32000 ave 32000 max 32000 min
Histogram: 1 0 0 0 0 0 0 0 0 0
Nghost:    17583 ave 17583 max 17583 min
Histogram: 1 0 0 0 0 0 0 0 0 0
Neighs:    1.11899e+06 ave 1.11899e+06 max 1.11899e+06 min
Histogram: 1 0 0 0 0 0 0 0 0 0

Total # of neighbors = 1118989
Ave neighs/atom = 34.9684
Ave special neighs/atom = 1.75
Neighbor list builds = 185826
Dangerous builds = 0

write_restart restart.surften_vlv
Total wall time: 9:50:32
