LAMMPS data file via write_data, version 16 Mar 2018, timestep = 102000

8000 atoms
1 atom types
7000 bonds
1 bond types

0.0000000000000000e+000 2.0000000000000000e+001 xlo xhi
0.0000000000000000e+000 2.0000000000000000e+001 ylo yhi
0.0000000000000000e+000 2.4000000000000000e+001 zlo zhi

Masses

1 1

Atoms # bond

144 18 1 1.9474475931568147e+001 3.0313988220085342e-001 1.2076740386908644e+000 -1 0 0
525 66 1 1.1894131760339455e+000 1.4454150167881388e+000 8.6139130958764576e-001 0 0 0
73 10 1 1.1858274306405616e+000 1.9480985064948268e+001 4.4921056621195443e-001 1 -1 0
121 16 1 2.1772542807704727e+000 1.0812604365476786e+000 1.0475262524468867e-002 0 0 0
122 16 1 1.6691145886469776e+000 4.3786516031818618e-001 6.2895150186969451e-001 0 0 0
859 108 1 4.0297931184171247e+000 4.1657067288821620e-001 1.1702467975433033e+000 1 0 0
447 56 1 5.3698248970152500e+000 1.1093464654857381e+000 8.6033576779910315e-001 0 0 0
432 54 1 8.5208439571449883e+000 1.3412857153874831e+000 8.4576954508233537e-001 0 0 0
892 112 1 7.0937134285996715e+000 3.1341915174820595e-001 1.4718887762552884e+000 0 0 0
412 52 1 9.7926531363889193e+000 8.1827215343714710e-001 1.7601352286051997e+000 0 0 0
410 52 1 9.7808468153562718e+000 1.4044484287615229e+000 5.3673839157918024e-001 0 0 0
409 52 1 1.0682696277943981e+001 9.0897464399370431e-001 6.2259450438614217e-001 0 0 0
411 52 1 1.0266512212442915e+001 1.5670840068522338e+000 1.3969791185918963e+000 0 0 0
519 65 1 1.0852170942312945e+001 6.2807926026410910e-001 1.5162142013385262e+000 0 0 0
518 65 1 1.1669539774490250e+001 2.4669753369947739e-001 9.9949411662371346e-001 0 0 0
514 65 1 1.2779986790620988e+001 1.7969869242370122e+000 1.5472344759294371e-001 0 0 0
513 65 1 1.2509898584789429e+001 8.5632706652646640e-001 2.2679404483140350e-001 0 0 0
40 5 1 1.3546195939165283e+001 4.2061402643731965e-001 1.4139389014165209e+000 0 0 0
39 5 1 1.3260017761874270e+001 1.2154563228737663e+000 9.2204409681926713e-001 0 0 0
1144 143 1 1.4651449960722081e+001 1.9802495405731452e+001 1.1862360491038844e+000 -1 0 0
937 118 1 1.5526583748483514e+001 7.2645965245435073e-001 1.4921251458083502e+000 0 0 0
137 18 1 1.8525041711324040e+001 1.5851512075305063e+000 1.4449815196982163e+000 0 0 0
1140 143 1 1.7619247717966964e+001 1.0486770338773488e+000 1.4997088440677564e+000 0 1 0
1141 143 1 1.6749529117530308e+001 5.6537328983071389e-001 1.2674904645076497e+000 -1 1 0
1184 148 1 1.9984502910112685e+001 1.4564798887855041e-001 2.1823877537630683e+000 -1 1 0
143 18 1 1.9275311813299204e+001 9.1588017410125189e-001 4.4930745280163598e-001 -1 0 0
523 66 1 1.9558237388438076e+001 1.4099517343001737e+000 1.3419586450882452e+000 -1 0 0
524 66 1 4.9579601605915397e-001 9.7739919596005564e-001 1.4191976669152400e+000 0 0 0
142 18 1 5.3563733922282260e-002 1.4533959368089959e+000 1.1497871094974861e-001 0 0 0
141 18 1 7.2220057059673659e-001 2.2474145016819942e+000 2.5186050106857688e-001 0 0 0
527 66 1 2.6753528192675238e+000 1.7284705894227252e+000 1.1856210845934270e+000 0 0 0
526 66 1 1.8892388637156341e+000 2.1761104820168011e+000 7.2380663629367559e-001 0 0 0
528 66 1 3.0054433025564053e+000 2.3322956949921871e+000 4.6180131808642405e-001 0 0 0
967 121 1 3.7341129262322013e+000 2.1847562892124626e+000 1.2833911955709845e+000 0 0 0
448 56 1 4.9959141469625949e+000 3.4679263612542061e-001 1.3740797271025791e+000 0 0 0
442 56 1 4.6576248350050280e+000 1.7231654995981913e+000 9.9942384707540188e-001 0 0 0
445 56 1 6.5638102933447122e+000 2.3754426130021407e+000 1.2934311405917129e-001 0 0 0
446 56 1 6.0732251591199740e+000 1.5814915845076380e+000 3.2728286992846373e-001 0 0 0
444 56 1 6.5080454692906748e+000 2.1684686434598546e+000 1.0850834640649814e+000 0 0 0
93 12 1 8.4509056770806392e+000 2.4735099001641010e+000 1.4771715369691649e+000 0 0 0
92 12 1 7.5489260124839310e+000 2.8500519401038722e+000 1.2376836098758199e+000 0 0 0
1276 160 1 1.0986295747446267e+001 2.0421004383272341e+000 7.9910245316936979e-001 0 0 0
89 12 1 9.3942682636567749e+000 2.4776668160169315e+000 8.2558698660955232e-001 0 0 0
1275 160 1 1.0776336395190766e+001 2.4465553822892536e+000 1.6770663894762359e+000 0 0 0
1274 160 1 1.1730762535930733e+001 2.3638038539984865e+000 1.5441865094954748e+000 0 0 0
515 65 1 1.1772865986424470e+001 1.5809719675764906e+000 1.0016700555055608e-001 0 0 0
38 5 1 1.3277262218250305e+001 2.2269103546283713e+000 9.6307768786741277e-001 0 0 0
37 5 1 1.3504179883680454e+001 2.4086869996291731e+000 1.8984258333335535e+000 0 0 0
36 5 1 1.4026703575351716e+001 1.6121193507403739e+000 1.4871182691441114e+000 0 0 0
35 5 1 1.4770349147156821e+001 1.7670026671750916e+000 9.7641085605275058e-001 0 0 0
34 5 1 1.5031627857400879e+001 2.5739384585153409e+000 1.5404636681303217e+000 0 0 0
33 5 1 1.5287116463588939e+001 3.4611955298326977e+000 1.1538961653914435e+000 0 0 0
938 118 1 1.6140103349032579e+001 1.4692513431654497e+000 1.7194563185432856e+000 0 0 0
939 118 1 1.6102555954044433e+001 2.5308379297152714e+000 1.9011480581365390e+000 0 0 0
996 125 1 1.9023107783200846e+001 3.2663568253404547e+000 8.1173927165236481e-001 0 0 0
993 125 1 1.0832728743092370e+000 2.8522793948190595e+000 1.1785378616532269e+000 1 0 0
617 78 1 4.5138435329099230e-001 3.9916492954255940e+000 1.0835761287625789e+000 1 0 0
961 121 1 2.8535440364390414e+000 3.2983829990982585e+000 6.7103479000040211e-002 0 0 0
963 121 1 2.7900137549335713e+000 3.8466545018717468e+000 9.4772164399430192e-001 0 0 0
965 121 1 4.2728374937154827e+000 3.6715729283565004e+000 7.3045950355894651e-001 0 0 0
964 121 1 3.5887076469074692e+000 4.3976143262649519e+000 7.5950005964708045e-001 0 0 0
966 121 1 4.0795334837550472e+000 2.7362184719135816e+000 5.7335226696355934e-001 0 0 0
991 124 1 4.6457885924048501e+000 4.0946124506104189e+000 1.6669313490195279e+000 0 0 0
990 124 1 5.4976301314375355e+000 4.5517434326970161e+000 1.7282437572586793e+000 0 0 0
509 64 1 8.3239724927239749e+000 3.7926303056271049e+000 1.2118040630684417e+000 0 0 0
91 12 1 7.8631431175870548e+000 2.1355550398457210e+000 6.1039595611837882e-001 0 0 0
90 12 1 8.4518622360967584e+000 2.8789359111496573e+000 6.1285106560012548e-001 0 0 0
111 14 1 1.2615355397659501e+001 3.4525515901887798e+000 5.4850818751796271e-001 0 0 0
112 14 1 1.2054939425907916e+001 2.6619984168927675e+000 1.4871322009341253e-001 0 0 0
135 17 1 1.3654042419311779e+001 3.2339497000540889e+000 1.0271140947205992e-001 0 0 0
133 17 1 1.4480607555662873e+001 3.5776423047985677e+000 1.6969796991154902e+000 0 0 0
134 17 1 1.3615122998334000e+001 3.3995942968321491e+000 1.1458134899789594e+000 0 0 0
943 118 1 1.5016045763362222e+001 4.6453603127237697e+000 9.7931258534657784e-001 -1 0 0
940 118 1 1.6510345382142589e+001 2.8811613582859983e+000 1.0249803182888368e+000 0 0 0
941 118 1 1.6563885151295224e+001 3.7910543245473356e+000 1.2336521946852028e+000 -1 0 0
560 70 1 1.7515434755329856e+001 5.5153155452372928e+000 1.0177731159521677e+000 0 0 0
997 125 1 1.8543622231211476e+001 3.3269675547265973e+000 1.6922990508548739e+000 0 0 0
994 125 1 9.3229358472569601e-001 3.3815861685721909e+000 3.3640044878879372e-001 1 0 0
995 125 1 1.9992748879617643e+001 3.0878358781543840e+000 6.4454749336686123e-001 0 0 0
97 13 1 1.0140382388764793e+000 4.9622017363535020e+000 8.5313622040391757e-001 1 0 0
100 13 1 2.0091059268109426e+000 4.5984094787128074e+000 9.3395624660684873e-001 1 0 0
99 13 1 1.4447933467507472e+000 3.9074979851143703e+000 1.2798356264698669e+000 1 0 0
182 23 1 6.3214373455106188e+000 5.3373531684943449e+000 6.8739459110640977e-001 0 0 0
101 13 1 2.8064758530635792e+000 5.0693631593541317e+000 6.6526005932699195e-001 0 0 0
181 23 1 5.2777428076257520e+000 5.4201961909461778e+000 6.2417929295877572e-001 0 0 0
180 23 1 4.5219315518433767e+000 4.8809380502047306e+000 9.3349563977162942e-001 1 0 0
183 23 1 6.5794391092650706e+000 6.2392179530320924e+000 1.0040372101941910e+000 0 0 0
987 124 1 7.1453958939308944e+000 4.3558572121501866e+000 1.5587619759637645e+000 0 0 0
986 124 1 6.2512229186390762e+000 4.3436334553476925e+000 1.0602001964117631e+000 0 0 0
510 64 1 8.0739690053427839e+000 4.7830764740656448e+000 1.2092894818521980e+000 0 0 0
506 64 1 9.8650418790660570e+000 4.3868520201111316e+000 7.9088869628563707e-001 0 0 0
107 14 1 1.1188002303019148e+001 5.4491965055311020e+000 8.3472631761081817e-001 0 0 0
109 14 1 1.1391642319003720e+001 3.5260871830538316e+000 4.0351689543466002e-001 0 0 0
136 17 1 1.4192609369184536e+001 4.0731211186383343e+000 4.5255029114316919e-001 0 0 0
173 22 1 1.2314329894034595e+001 5.2685671922200035e+000 6.5616670510760322e-001 0 0 0
132 17 1 1.3866408935090847e+001 4.4408273613227438e+000 1.8810703700039597e+000 0 0 0
171 22 1 1.3107758736819385e+001 5.2643167449847077e+000 1.5663054735290189e+000 0 0 0
942 118 1 1.5883527267236326e+001 4.2005377287161911e+000 6.1977959953878914e-001 -1 0 0
251 32 1 1.5754052275241060e+001 5.8741796536741111e+000 8.4655844520103851e-001 0 0 0
558 70 1 1.6649759572796864e+001 5.8101938491428502e+000 1.5420190755566696e+000 0 0 0
559 70 1 1.7005573845872263e+001 4.8204917354132490e+000 1.3506264751549053e+000 0 0 0
557 70 1 1.7533529330125127e+001 6.2068979683114707e+000 1.9009436751484687e+000 0 0 0
1839 230 1 1.8758688386896061e+001 4.8442802958847615e+000 1.4867178420792919e+000 0 0 0
580 73 1 1.8788938815667294e+001 5.4493311039784595e+000 3.9746772326560309e-001 0 0 0
579 73 1 1.9620889519965260e+001 5.3110267652302658e+000 9.5435145401578247e-001 0 0 0
578 73 1 1.9590474798720788e+001 4.3240901408974457e+000 7.0508380740768573e-001 0 0 0
624 78 1 4.8629566738649027e-001 5.8444227661122206e+000 1.2841601053017528e+000 0 0 0
623 78 1 1.2941163991556366e+000 6.0349777154537474e+000 6.9838300572030965e-001 0 0 0
102 13 1 2.5881718172747425e+000 5.7714550837474290e+000 1.3547320876941213e+000 0 0 0
297 38 1 2.9925477810842072e+000 7.8990510982636248e+000 4.0907457506000222e-001 1 0 0
201 26 1 4.9029474585983950e+000 6.9743995441423134e+000 8.5797484716284911e-001 0 0 0
202 26 1 4.1528360857702875e+000 6.1453112152268732e+000 1.0450275277475385e+000 0 0 0
184 23 1 6.1947504313319390e+000 5.5333235708906665e+000 1.6240469644723252e+000 0 0 0
204 26 1 5.2644093780096899e+000 6.4362707443841964e+000 1.6243270823926970e+000 0 0 0
985 124 1 5.3687781842846958e+000 3.9355178901853485e+000 7.8140645218827731e-001 0 0 0
265 34 1 7.1734573442185283e+000 5.4857755348176118e+000 1.4060771041639704e+000 0 0 0
266 34 1 7.3289671142773232e+000 6.3607640778592254e+000 1.8289083408682918e+000 0 0 0
505 64 1 9.3169879604865002e+000 3.5672346643402131e+000 5.1214896545391886e-001 0 0 0
105 14 1 9.9610729400151179e+000 6.7198008917290863e+000 2.5878450595329550e-001 0 0 0
106 14 1 1.0370123850498352e+001 5.6814867046524631e+000 4.0630769871668443e-001 0 0 0
172 22 1 1.2895987478885422e+001 4.5117491245517884e+000 8.7559927011015704e-001 0 0 0
169 22 1 1.3548549817825551e+001 5.2562757711161536e+000 5.0719201778093442e-002 0 0 0
250 32 1 1.5290411975482119e+001 6.6416368638546253e+000 1.2955606371515842e+000 0 0 0
249 32 1 1.5714211142187859e+001 6.7854106875978824e+000 3.9130144782229909e-001 0 0 0
233 30 1 1.5909154080932314e+001 7.5186991363525264e+000 1.1529464464520418e+000 0 0 0
236 30 1 1.7075641525523015e+001 7.0260274331281112e+000 1.2711676000101182e+000 0 0 0
1838 230 1 1.8429594121496468e+001 5.6318026968608992e+000 1.8925077932861012e+000 0 0 0
581 73 1 1.9049574580617222e+001 6.1274585516922562e+000 1.0955198056617699e+000 -1 0 0
1835 230 1 1.9464028876656876e+001 5.4084855402561240e+000 2.0808071331346820e+000 0 0 0
582 73 1 1.8887160278276916e+001 6.5558834640930757e+000 2.0296660612627653e+000 -1 0 0
583 73 1 1.9878264649830584e+001 6.3792642401023025e+000 1.9494239874932897e+000 -1 0 0
1122 141 1 1.9891481434694803e+001 6.4138290201813151e+000 1.2982892655958145e-001 -1 0 0
1121 141 1 4.6225364950196690e-001 7.1851758171181492e+000 4.4323964842377733e-001 0 0 0
1123 141 1 1.9183033043156669e+001 7.1071216592605317e+000 3.7513723263445115e-001 -1 0 0
298 38 1 2.2584476302317626e+000 8.3639041842222017e+000 9.0156278869743978e-001 1 0 0
260 33 1 3.5792343768445902e+000 9.7185677830839268e+000 6.5329363947097624e-002 1 0 0
259 33 1 4.1418944535067528e+000 9.0699401795444476e+000 5.2440558053241848e-001 1 0 0
84 11 1 5.6312948134819329e+000 8.7009890748317371e+000 1.4222260841262040e+000 0 0 0
85 11 1 6.2753824786850902e+000 9.0354656334069503e+000 7.5006207955395454e-001 0 0 0
672 84 1 6.2060151235934438e+000 7.1236806964582922e+000 1.2970205589083035e+000 0 0 0
671 84 1 6.5381662881098412e+000 8.0726148072698969e+000 1.1276363659186961e+000 0 0 0
267 34 1 7.3534784460314961e+000 7.3082517100489630e+000 1.3083338244195191e+000 0 0 0
670 84 1 7.3595691324402752e+000 8.4344347670540980e+000 8.0413690112484593e-001 0 0 0
192 24 1 9.2477267915474961e+000 7.9947624171285225e+000 1.2576648756432358e+000 0 0 0
191 24 1 1.0219381971186698e+001 8.0835249120223569e+000 1.3884189811191971e+000 0 0 0
190 24 1 1.0188493446722680e+001 7.1074741785022661e+000 1.4210973357726544e+000 0 0 0
230 29 1 1.1317264724724570e+001 7.9891791496888676e+000 1.0688233689879048e+000 0 0 0
231 29 1 1.1386775059840936e+001 7.0586271915823788e+000 7.0986824665869819e-001 0 0 0
612 77 1 1.3053195479633155e+001 7.6908793391405705e+000 4.9799729986850744e-001 0 0 0
611 77 1 1.2744082077322654e+001 8.6319604562576249e+000 6.6809937847729162e-001 0 0 0
593 75 1 1.3765740997848015e+001 8.2909222353179786e+000 1.2286212483090824e+000 0 0 0
594 75 1 1.4129778236905999e+001 7.7550678646323252e+000 4.3553478560364040e-001 0 0 0
598 75 1 1.5502480850494321e+001 8.8607873631064678e+000 1.2946387336444465e+000 0 0 0
599 75 1 1.5238080591814256e+001 9.6622733984741345e+000 7.1581182608477423e-001 0 0 0
32 4 1 1.4600501376988412e+001 8.8374060726724242e+000 6.9280624058810059e-001 0 -1 0
234 30 1 1.6020695378014430e+001 7.9176964108909207e+000 1.9899048454391691e-001 0 0 0
235 30 1 1.6982335101289070e+001 7.7446183882044597e+000 6.0172232309849416e-001 0 0 0
237 30 1 1.6940620130116347e+001 6.3228152892360363e+000 4.8712434014055123e-001 0 0 0
239 30 1 1.8124033602835020e+001 6.7731229171488501e+000 1.2489717440998911e+000 0 0 0
238 30 1 1.7724662589535093e+001 6.9731024967146444e+000 3.7181753799945139e-001 0 0 0
1125 141 1 1.8371758713962535e+001 8.7520683104178350e+000 9.2558795972842378e-001 -1 0 0
1124 141 1 1.8704072638357232e+001 7.8856021400888707e+000 6.4780815792136903e-001 -1 0 0
280 35 1 1.8697669284722046e+001 1.0847623910448167e+001 1.7391338106441775e-001 0 0 0
299 38 1 1.7537246393316128e+000 9.1566570897078385e+000 7.1985328605559440e-001 1 0 0
685 86 1 2.6881472960841806e+000 1.0902385699124245e+001 7.2356406586031119e-001 0 0 0
768 96 1 5.2548367740475337e+000 9.7905037758947859e+000 1.2155630540004105e-001 0 0 0
87 11 1 6.5604035575820268e+000 1.0312987439855037e+001 4.7972141911162935e-001 0 0 0
86 11 1 7.0133252076473145e+000 9.4134141980829398e+000 2.0533687189251801e-001 0 0 0
83 11 1 6.2149688126264229e+000 9.0967497533416086e+000 2.1726179077407575e+000 0 0 0
668 84 1 7.9967501296931660e+000 9.5864880791644804e+000 3.1859213618211490e-001 0 0 0
625 79 1 9.1264683987860185e+000 9.5218031186365657e+000 6.0999796076150492e-001 0 0 0
669 84 1 8.3620371916235303e+000 8.7873155233238922e+000 8.3859756010529751e-001 0 0 0
312 39 1 9.8040314149456353e+000 9.2032552789526108e+000 1.4236169033961508e+000 0 0 0
311 39 1 1.0597138927108650e+001 9.4226392334907292e+000 9.3966678426858841e-001 0 0 0
310 39 1 1.1345604930658306e+001 1.0157042691209019e+001 9.0323810270126670e-001 0 0 0
232 29 1 1.0602086399383623e+001 7.5236447286501891e+000 4.0166473316957174e-001 0 0 0
609 77 1 1.1587618638159222e+001 8.4934288962952795e+000 1.9212218129102307e-001 0 0 0
31 4 1 1.3856495290180161e+001 9.2919196226527507e+000 2.4171584397069593e-001 0 -1 0
30 4 1 1.4325123664563817e+001 1.0264327903036930e+001 4.4948517427558005e-001 0 -1 0
600 75 1 1.5995531625523245e+001 9.0926952481647341e+000 4.4496796918866166e-001 0 0 0
1438 180 1 1.6376535311321227e+001 9.4590666128031557e+000 1.3957404579584092e+000 0 0 0
1437 180 1 1.6734283455593140e+001 1.0227325228826091e+001 7.7200851260381997e-001 0 0 0
295 37 1 1.7215942718751961e+001 8.7844238202406082e+000 9.6393930784339121e-001 0 0 0
289 37 1 1.9680131096026578e+001 8.4837779054454963e+000 6.2629277908148617e-001 0 0 0
294 37 1 1.7667568612336588e+001 9.5897252292576987e+000 1.1884860027559201e+000 0 0 0
293 37 1 1.8605174194917492e+001 9.8671861228857765e+000 1.5335265396157103e+000 0 0 0
292 37 1 1.9374152901980811e+001 9.5288831239441478e+000 2.2092744926798549e+000 0 0 0
290 37 1 1.9502638238939394e+001 8.2875081153144166e+000 1.5701600629844576e+000 0 0 0
276 35 1 1.8339779399613509e+001 1.1782855378216547e+001 1.3039861417346843e+000 0 0 0
279 35 1 1.9330786075930515e+001 1.0230336693898314e+001 5.7430445820436304e-001 0 0 0
683 86 1 3.6043304323742018e+000 1.0760149207508979e+001 1.2909395736589639e+000 0 0 0
687 86 1 1.3364757959002405e+000 1.1212447295755922e+001 3.1408468465455919e-001 0 0 0
686 86 1 1.9528872086125748e+000 1.0397406963738309e+001 3.6132770056019531e-001 0 0 0
8 1 1 1.7206898648369613e+000 1.0836272175686430e+001 1.2902324951048256e+000 0 -1 0
684 86 1 3.5786836246920819e+000 1.0707739912931501e+001 3.2851866878418257e-001 0 0 0
605 76 1 4.6965530817293413e+000 1.0494656151634430e+001 9.0102718504807588e-001 0 0 0
767 96 1 5.5241843227516449e+000 9.9053348585966638e+000 1.0934943325539870e+000 0 0 0
604 76 1 5.5879115003367632e+000 1.0825189399899402e+001 5.7793531482284766e-001 0 0 0
88 11 1 7.4872613322228734e+000 1.0736447762831876e+001 2.0557477613787634e-001 0 0 0
603 76 1 6.4548470705448713e+000 1.1372338689544510e+001 2.5078151354465933e-001 0 0 0
601 76 1 7.7208530792201149e+000 1.2571392448213322e+001 7.4298010812961812e-001 0 0 0
766 96 1 5.5352519963225824e+000 9.8134579936281519e+000 2.1082104478214254e+000 0 0 0
667 84 1 8.5326010645131500e+000 1.0376850801732029e+001 1.2541328649081854e-001 0 0 0
626 79 1 8.8493801370280565e+000 1.0043682503638577e+001 1.3554388928238761e+000 0 0 0
666 84 1 8.3431878966608330e+000 1.1139042570178439e+001 8.8557042262364793e-001 0 0 0
1111 139 1 9.4038847320360119e+000 1.1330557778544994e+001 1.1968580233830026e+000 0 0 0
1066 134 1 1.0209399906495259e+001 1.1509931150048329e+001 4.3610135055618549e-001 0 0 0
1065 134 1 9.8545684575654864e+000 1.0632017038368144e+001 6.0098418593079062e-001 0 0 0
1067 134 1 1.1005608614464091e+001 1.1478978122523641e+001 1.0126049270686757e+000 0 0 0
1089 137 1 1.1988420296774279e+001 1.0445796835080849e+001 1.4586676162896267e-001 0 0 0
28 4 1 1.3126885269933062e+001 1.1489719760819366e+001 5.2191525705234487e-001 0 -1 0
29 4 1 1.3634463972033499e+001 1.0825893376901107e+001 6.8346426080835493e-002 0 -1 0
1896 237 1 1.4079749287414236e+001 1.1275628583930322e+001 1.1064542784067424e+000 0 0 0
1097 138 1 1.6460379464554038e+001 1.1280269499080935e+001 5.6001040878459674e-001 0 0 0
1062 133 1 1.7965277905676555e+001 1.0749013455940291e+001 9.1987230085087024e-001 -1 0 0
1063 133 1 1.7823786595697857e+001 1.1401378983586302e+001 1.7638268147451872e-001 -1 0 0
1061 133 1 1.7316955113702676e+001 1.1340570507187362e+001 1.3097839427558220e+000 -1 0 0
277 35 1 1.9011963380976354e+001 1.1120940076668060e+001 1.3961807265133310e+000 0 0 0
275 35 1 1.9074875095246444e+001 1.2044837802602741e+001 6.2366225311279999e-001 0 0 0
688 86 1 5.4435863196284950e-001 1.0780901421143927e+001 6.4355152257671255e-001 0 0 0
784 98 1 1.6244106337694488e+000 1.3922336834504060e+001 8.0968975155536427e-001 0 0 0
1 1 1 3.4638465892386145e+000 1.1751982316495816e+001 4.7768873390409250e-001 0 -1 0
7 1 1 2.3684559371570257e+000 1.1553633194137300e+001 1.5136242222109140e+000 0 -1 0
1952 244 1 4.6637233422521707e+000 1.2053686791777833e+001 1.0274449122300264e+000 0 0 0
1951 244 1 5.0463235197464646e+000 1.2704305989083220e+001 1.5476174530553775e+000 0 0 0
727 91 1 5.6680991013070781e+000 1.2249418168783134e+001 7.8451064457145325e-001 0 0 0
602 76 1 7.3494118728780204e+000 1.1809104231850371e+001 1.5909597162705544e-001 0 0 0
726 91 1 6.6133961022396397e+000 1.2609317817754224e+001 6.0056427331924545e-001 0 0 0
1109 139 1 8.7068484239427821e+000 1.2702372898307907e+001 1.0934163822272980e+000 0 0 0
1110 139 1 9.0057890598999961e+000 1.1873901191521659e+001 4.5486153494924375e-001 0 0 0
1107 139 1 9.0141008392468489e+000 1.1928526744786941e+001 2.0571054524407844e+000 0 0 0
1112 139 1 9.7257065926375592e+000 1.2256262537707633e+001 1.0115959889724024e+000 0 0 0
44 6 1 9.7008772266686680e+000 1.3650977207888245e+001 1.3293476263529245e+000 0 -1 0
1489 187 1 1.0686288607258293e+001 1.2576924319450850e+001 1.3132051410511925e+000 0 0 0
695 87 1 1.3904480281685615e+001 1.2128138957055226e+001 5.7088944236557682e-001 0 0 0
694 87 1 1.3960554460767790e+001 1.3051870718911562e+001 9.7580689262423148e-001 0 0 0
392 49 1 1.2513144293418836e+001 1.3674355893297406e+001 9.5549678622368273e-001 0 0 0
696 87 1 1.4767782137132551e+001 1.2030681321456985e+001 2.0100329871072320e-001 0 0 0
1038 130 1 1.5523056894782188e+001 1.2739667359829896e+001 5.5282030536139193e-001 0 0 0
1035 130 1 1.4589950590117317e+001 1.2368851853298727e+001 1.3140246761816128e+000 0 0 0
1040 130 1 1.7061004786043682e+001 1.2409955020387786e+001 1.4638297071288604e+000 0 0 0
1039 130 1 1.6476903422470215e+001 1.2493106817711933e+001 5.7932649380886114e-001 0 0 0
1037 130 1 1.5470401321001210e+001 1.1863110876822882e+001 9.9221288231381499e-001 0 0 0
1080 135 1 1.6679429972831038e+001 1.3154155076431337e+001 2.3318363736269876e+000 0 0 0
1064 133 1 1.7565705556088069e+001 1.2166721597297288e+001 5.8878379481056164e-001 -1 0 0
337 43 1 1.8328447939104155e+001 1.2742031540757591e+001 1.7338842190629360e+000 0 0 0
1060 133 1 1.7670732023957683e+001 1.1739795164693207e+001 2.2087731104673924e+000 0 0 0
274 35 1 1.9010983176212477e+001 1.2999374978623353e+001 5.0250077752356037e-001 0 0 0
1568 196 1 4.4362546658070177e-002 1.1776517823305900e+001 1.1309685324401690e+000 0 0 0
4 1 1 2.1801486163877168e+000 1.2091874876840965e+001 5.5567385982129358e-001 0 -1 0
5 1 1 1.3020948777704531e+000 1.2195496012596873e+001 9.7227896877975306e-001 0 -1 0
2 1 1 3.1325401596306066e+000 1.2595756803495549e+001 8.4721586009897409e-001 0 -1 0
3 1 1 2.2554100399023866e+000 1.2759406130312348e+001 1.2489543311011329e+000 0 -1 0
1086 136 1 4.7422962918386302e+000 1.4212438813485010e+001 1.6087387105867388e+000 0 0 0
1084 136 1 3.8953759223964841e+000 1.4210056392474160e+001 5.9152573737297975e-001 0 0 0
1081 136 1 4.1967441284163698e+000 1.3030749140014809e+001 8.2487694637144804e-001 0 0 0
728 91 1 5.2981563542613150e+000 1.3177326412057710e+001 6.2735737683086146e-001 0 0 0
41 6 1 7.7033870500285282e+000 1.3601305238271918e+001 5.3068082654764825e-001 0 -1 0
42 6 1 8.1011250771468166e+000 1.3485462309547183e+001 1.5415493025111646e+000 0 -1 0
43 6 1 9.0197839690817947e+000 1.3393053619264370e+001 1.9053169789522961e+000 0 -1 0
47 6 1 8.9438730491788085e+000 1.4934130595711602e+001 3.7845020416284281e-001 0 -1 0
46 6 1 8.7836004408198338e+000 1.3895225907403258e+001 3.5415742981817555e-001 0 -1 0
45 6 1 9.7231212496090080e+000 1.3967289419522245e+001 4.3383601982639514e-001 0 -1 0
72 9 1 1.1419543935570401e+001 1.3462586810542831e+001 8.4789091094795532e-001 0 -1 0
71 9 1 1.0747575458368740e+001 1.3694992505833982e+001 1.5114019260159546e+000 0 -1 0
690 87 1 1.2964822800014122e+001 1.4660532167480380e+001 4.7495754816894936e-001 0 0 0
689 87 1 1.3162344350110391e+001 1.3688965324834948e+001 6.3282383957074875e-002 0 0 0
390 49 1 1.3480516862556863e+001 1.4057621696657794e+001 1.1907403046387224e+000 0 0 0
1034 130 1 1.4914727223801703e+001 1.3413691129912342e+001 1.1162021258531376e+000 0 0 0
693 87 1 1.4433891683126701e+001 1.3403251221060334e+001 2.2927459920945292e-001 0 0 0
673 85 1 1.6135686433371411e+001 1.2968128470852289e+001 1.4017595789421700e+000 0 0 0
675 85 1 1.7751419124401103e+001 1.3694386986743876e+001 1.4835776110676708e+000 0 0 0
674 85 1 1.6865597947650429e+001 1.3624644897357136e+001 1.1451859243178610e+000 0 0 0
341 43 1 1.8944755592729717e+001 1.4148700712776925e+001 4.1431464928969974e-001 -1 0 0
273 35 1 1.9970837734232155e+001 1.2844753546438854e+001 7.6116403921283349e-001 0 0 0
340 43 1 1.9078072741024755e+001 1.3978524460112093e+001 1.4064029771500446e+000 0 0 0
344 43 1 1.9820792157044977e+001 1.4823740612973770e+001 4.9638640302316400e-001 -1 0 0
1961 246 1 1.6215112278023800e+000 1.4955422909688451e+001 1.0060127791500182e+000 0 0 0
404 51 1 5.5628387147240066e-001 1.5635065254326902e+001 1.0948798199075271e+000 0 -1 0
1085 136 1 4.8887617953693701e+000 1.4255983985386500e+001 6.3220062180010461e-001 0 0 0
498 63 1 3.5720688040070878e+000 1.6054723995360376e+001 1.0478254127606121e+000 1 -1 0
497 63 1 4.2423745160328279e+000 1.5511919057668653e+001 5.4881248517400216e-001 1 -1 0
808 101 1 5.3160567199328623e+000 1.5095490643935836e+001 8.9685098687399623e-001 0 -1 0
1149 144 1 5.9632993581461413e+000 1.4054201241323856e+001 9.4606037799008258e-001 0 0 0
1150 144 1 6.3325266106461360e+000 1.4801756887105920e+001 4.0106389170477447e-001 0 0 0
48 6 1 8.6519518990327811e+000 1.5867920503488945e+001 9.5577687781808101e-004 0 -1 0
866 109 1 9.6949202297395214e+000 1.6805530959987205e+001 9.8251467761128741e-001 0 -1 0
1151 144 1 7.1930000041418509e+000 1.5178359465432839e+001 7.4011127659560805e-001 0 0 0
865 109 1 9.5103453171975740e+000 1.5751538587381877e+001 8.7060690060480017e-001 0 -1 0
386 49 1 9.9455217653369203e+000 1.4749578778980535e+001 1.1068035483216325e+000 0 0 0
387 49 1 1.0968259824742828e+001 1.4582060240262408e+001 8.2189286688003471e-001 0 0 0
388 49 1 1.2002178335060766e+001 1.4704363434070190e+001 7.9863843872209750e-001 0 0 0
691 87 1 1.3937379696776452e+001 1.4796928216960438e+001 2.5036268594759498e-001 0 0 0
692 87 1 1.4781140384256659e+001 1.4268460624462822e+001 5.0404266434077660e-001 0 0 0
1571 197 1 1.3748813403431724e+001 1.5274027669339993e+001 1.2369313886300799e+000 0 0 0
1033 130 1 1.4429475924222013e+001 1.4133031840849801e+001 1.7908648848632192e+000 0 0 0
798 100 1 1.5581551013600864e+001 1.4831921257904606e+001 7.7132085066991929e-001 0 0 0
800 100 1 1.4357398611960166e+001 1.6009420153258393e+001 4.5736868134321906e-001 0 0 0
797 100 1 1.5976220099327785e+001 1.4350849289929730e+001 1.5242426588755194e+000 0 0 0
677 85 1 1.7255695782569859e+001 1.4540422045177387e+001 1.2074612083540055e+000 0 0 0
676 85 1 1.7002082703450895e+001 1.4115997764535090e+001 2.0707332629865944e+000 0 0 0
342 43 1 1.8379449854111463e+001 1.4551203310682054e+001 1.0487468275328564e+000 -1 0 0
679 85 1 1.7792011481999850e+001 1.5731284124713907e+001 5.6522363185410118e-001 0 0 0
343 43 1 1.9033643619004749e+001 1.5332815588946799e+001 7.2837280167108887e-001 -1 0 0
321 41 1 2.1610404016061766e-001 1.7575680283701363e+001 7.4135758326344414e-001 0 0 0
325 41 1 5.2950554567756036e-001 1.6667335938952181e+001 1.2690186626277007e+000 0 0 0
819 103 1 2.6833855417724752e+000 1.6786350314904627e+001 7.8448986035459356e-001 1 -1 0
818 103 1 2.1162048158948572e+000 1.6422425771041461e+001 5.6754006424143619e-003 1 -1 0
817 103 1 1.7689813438250381e+000 1.6092053990688004e+001 7.9590917197230349e-001 1 -1 0
499 63 1 3.0947278794418045e+000 1.6077628289320653e+001 1.4753177637712245e-001 1 -1 0
500 63 1 3.2633142247716282e+000 1.7053189087626244e+001 1.0158702127366406e-002 1 -1 0
501 63 1 4.2258331992574476e+000 1.6705761249162443e+001 5.9927947871813381e-002 0 -1 0
848 106 1 6.5788815238344300e+000 1.6347573165135056e+001 6.8372952138133081e-001 0 -1 0
846 106 1 5.7236454055286723e+000 1.6929429475887858e+001 4.7335546870559836e-001 0 -1 0
842 106 1 6.6680456199573266e+000 1.6691283081717284e+001 1.8067374714458841e+000 0 -1 0
845 106 1 6.5376688148813660e+000 1.7378556217031019e+001 1.1559875795959457e-001 0 -1 0
867 109 1 8.6973174658268775e+000 1.6493066029738348e+001 8.5406068278914982e-001 0 -1 0
745 94 1 1.0058418063472407e+001 1.6638332086689914e+001 2.1235315265697632e+000 0 0 0
775 97 1 1.0676425250108739e+001 1.5926101988430830e+001 7.7191697813732985e-001 0 0 0
774 97 1 1.1198141308652630e+001 1.6584934666621471e+001 3.4636921907106938e-001 0 0 0
773 97 1 1.2133294461592874e+001 1.6682490753887478e+001 4.6653461253602889e-002 0 0 0
353 45 1 1.1667039211643297e+001 1.5742146065175431e+001 5.6022642978237014e-001 0 0 0
772 97 1 1.2507440140828015e+001 1.6784413367322614e+001 1.0159747483527051e+000 0 0 0
771 97 1 1.3017121539342169e+001 1.7033503784913815e+001 1.2686635455452816e-001 0 0 0
770 97 1 1.3460542505602731e+001 1.7320155375705390e+001 9.6292996270742337e-001 0 0 0
769 97 1 1.4459694822080641e+001 1.7335952361782461e+001 1.1150445885528051e+000 0 0 0
799 100 1 1.5345468378560581e+001 1.5735950854830108e+001 2.3301656275551613e-001 0 0 0
1570 197 1 1.4700469839482743e+001 1.5428041509078442e+001 1.2390345986752089e+000 0 0 0
1569 197 1 1.4868179228548389e+001 1.5755356905551842e+001 2.1913760377579159e+000 0 0 0
1119 140 1 1.5283321571653465e+001 1.6403585488496415e+001 1.1829456979730959e+000 0 0 0
1120 140 1 1.5293970159084045e+001 1.6751941835810086e+001 1.9867452130152688e-001 0 0 0
678 85 1 1.6907550790969101e+001 1.5429800634678118e+001 7.8009650134171804e-001 0 0 0
680 85 1 1.8406493583027878e+001 1.6460314001111982e+001 8.1959654431517037e-001 0 0 0
322 41 1 1.9540629127807204e+001 1.8176460070358296e+001 4.1333068747442969e-001 -1 0 0
323 41 1 1.8967843692438333e+001 1.7448554501069914e+001 8.4823244232323214e-001 -1 0 0