LAMMPS data 

5120 atoms
4480 bonds
0 angles
0 dihedrals
0 impropers

1 atom types
1 bond types
0 angle types
0 dihedral types
0 improper types

0 80 xlo xhi
0 9.6 ylo yhi
0 8 zlo zhi

Masses

1 1

Atoms

1 1 1 0.000000 0.000000 0.000000 0 0 0
2 1 1 1.000000 0.000000 0.000000 0 0 0
3 1 1 2.000000 0.000000 0.000000 0 0 0
4 1 1 3.000000 0.000000 0.000000 0 0 0
5 1 1 4.000000 0.000000 0.000000 0 0 0
6 1 1 5.000000 0.000000 0.000000 0 0 0
7 1 1 6.000000 0.000000 0.000000 0 0 0
8 1 1 7.000000 0.000000 0.000000 0 0 0
9 2 1 8.000000 0.000000 0.000000 0 0 0
10 2 1 9.000000 0.000000 0.000000 0 0 0
11 2 1 10.000000 0.000000 0.000000 0 0 0
12 2 1 11.000000 0.000000 0.000000 0 0 0
13 2 1 12.000000 0.000000 0.000000 0 0 0
14 2 1 13.000000 0.000000 0.000000 0 0 0
15 2 1 14.000000 0.000000 0.000000 0 0 0
16 2 1 15.000000 0.000000 0.000000 0 0 0
17 3 1 16.000000 0.000000 0.000000 0 0 0
18 3 1 17.000000 0.000000 0.000000 0 0 0
19 3 1 18.000000 0.000000 0.000000 0 0 0
20 3 1 19.000000 0.000000 0.000000 0 0 0
21 3 1 20.000000 0.000000 0.000000 0 0 0
22 3 1 21.000000 0.000000 0.000000 0 0 0
23 3 1 22.000000 0.000000 0.000000 0 0 0
24 3 1 23.000000 0.000000 0.000000 0 0 0
25 4 1 24.000000 0.000000 0.000000 0 0 0
26 4 1 25.000000 0.000000 0.000000 0 0 0
27 4 1 26.000000 0.000000 0.000000 0 0 0
28 4 1 27.000000 0.000000 0.000000 0 0 0
29 4 1 28.000000 0.000000 0.000000 0 0 0
30 4 1 29.000000 0.000000 0.000000 0 0 0
31 4 1 30.000000 0.000000 0.000000 0 0 0
32 4 1 31.000000 0.000000 0.000000 0 0 0
33 5 1 32.000000 0.000000 0.000000 0 0 0
34 5 1 33.000000 0.000000 0.000000 0 0 0
35 5 1 34.000000 0.000000 0.000000 0 0 0
36 5 1 35.000000 0.000000 0.000000 0 0 0
37 5 1 36.000000 0.000000 0.000000 0 0 0
38 5 1 37.000000 0.000000 0.000000 0 0 0
39 5 1 38.000000 0.000000 0.000000 0 0 0
40 5 1 39.000000 0.000000 0.000000 0 0 0
41 6 1 40.000000 0.000000 0.000000 0 0 0
42 6 1 41.000000 0.000000 0.000000 0 0 0
43 6 1 42.000000 0.000000 0.000000 0 0 0
44 6 1 43.000000 0.000000 0.000000 0 0 0
45 6 1 44.000000 0.000000 0.000000 0 0 0
46 6 1 45.000000 0.000000 0.000000 0 0 0
47 6 1 46.000000 0.000000 0.000000 0 0 0
48 6 1 47.000000 0.000000 0.000000 0 0 0
49 7 1 48.000000 0.000000 0.000000 0 0 0
50 7 1 49.000000 0.000000 0.000000 0 0 0
51 7 1 50.000000 0.000000 0.000000 0 0 0
52 7 1 51.000000 0.000000 0.000000 0 0 0
53 7 1 52.000000 0.000000 0.000000 0 0 0
54 7 1 53.000000 0.000000 0.000000 0 0 0
55 7 1 54.000000 0.000000 0.000000 0 0 0
56 7 1 55.000000 0.000000 0.000000 0 0 0
57 8 1 56.000000 0.000000 0.000000 0 0 0
58 8 1 57.000000 0.000000 0.000000 0 0 0
59 8 1 58.000000 0.000000 0.000000 0 0 0
60 8 1 59.000000 0.000000 0.000000 0 0 0
61 8 1 60.000000 0.000000 0.000000 0 0 0
62 8 1 61.000000 0.000000 0.000000 0 0 0
63 8 1 62.000000 0.000000 0.000000 0 0 0
64 8 1 63.000000 0.000000 0.000000 0 0 0
65 9 1 64.000000 0.000000 0.000000 0 0 0
66 9 1 65.000000 0.000000 0.000000 0 0 0
67 9 1 66.000000 0.000000 0.000000 0 0 0
68 9 1 67.000000 0.000000 0.000000 0 0 0
69 9 1 68.000000 0.000000 0.000000 0 0 0
70 9 1 69.000000 0.000000 0.000000 0 0 0
71 9 1 70.000000 0.000000 0.000000 0 0 0
72 9 1 71.000000 0.000000 0.000000 0 0 0
73 10 1 72.000000 0.000000 0.000000 0 0 0
74 10 1 73.000000 0.000000 0.000000 0 0 0
75 10 1 74.000000 0.000000 0.000000 0 0 0
76 10 1 75.000000 0.000000 0.000000 0 0 0
77 10 1 76.000000 0.000000 0.000000 0 0 0
78 10 1 77.000000 0.000000 0.000000 0 0 0
79 10 1 78.000000 0.000000 0.000000 0 0 0
80 10 1 79.000000 0.000000 0.000000 0 0 0
81 11 1 0.000000 1.000000 0.000000 0 0 0
82 11 1 1.000000 1.000000 0.000000 0 0 0
83 11 1 2.000000 1.000000 0.000000 0 0 0
84 11 1 3.000000 1.000000 0.000000 0 0 0
85 11 1 4.000000 1.000000 0.000000 0 0 0
86 11 1 5.000000 1.000000 0.000000 0 0 0
87 11 1 6.000000 1.000000 0.000000 0 0 0
88 11 1 7.000000 1.000000 0.000000 0 0 0
89 12 1 8.000000 1.000000 0.000000 0 0 0
90 12 1 9.000000 1.000000 0.000000 0 0 0
91 12 1 10.000000 1.000000 0.000000 0 0 0
92 12 1 11.000000 1.000000 0.000000 0 0 0
93 12 1 12.000000 1.000000 0.000000 0 0 0
94 12 1 13.000000 1.000000 0.000000 0 0 0
95 12 1 14.000000 1.000000 0.000000 0 0 0
96 12 1 15.000000 1.000000 0.000000 0 0 0
97 13 1 16.000000 1.000000 0.000000 0 0 0
98 13 1 17.000000 1.000000 0.000000 0 0 0
99 13 1 18.000000 1.000000 0.000000 0 0 0
100 13 1 19.000000 1.000000 0.000000 0 0 0
101 13 1 20.000000 1.000000 0.000000 0 0 0
102 13 1 21.000000 1.000000 0.000000 0 0 0
103 13 1 22.000000 1.000000 0.000000 0 0 0
104 13 1 23.000000 1.000000 0.000000 0 0 0
105 14 1 24.000000 1.000000 0.000000 0 0 0
106 14 1 25.000000 1.000000 0.000000 0 0 0
107 14 1 26.000000 1.000000 0.000000 0 0 0
108 14 1 27.000000 1.000000 0.000000 0 0 0
109 14 1 28.000000 1.000000 0.000000 0 0 0
110 14 1 29.000000 1.000000 0.000000 0 0 0
111 14 1 30.000000 1.000000 0.000000 0 0 0
112 14 1 31.000000 1.000000 0.000000 0 0 0
113 15 1 32.000000 1.000000 0.000000 0 0 0
114 15 1 33.000000 1.000000 0.000000 0 0 0
115 15 1 34.000000 1.000000 0.000000 0 0 0
116 15 1 35.000000 1.000000 0.000000 0 0 0
117 15 1 36.000000 1.000000 0.000000 0 0 0
118 15 1 37.000000 1.000000 0.000000 0 0 0
119 15 1 38.000000 1.000000 0.000000 0 0 0
120 15 1 39.000000 1.000000 0.000000 0 0 0
121 16 1 40.000000 1.000000 0.000000 0 0 0
122 16 1 41.000000 1.000000 0.000000 0 0 0
123 16 1 42.000000 1.000000 0.000000 0 0 0
124 16 1 43.000000 1.000000 0.000000 0 0 0
125 16 1 44.000000 1.000000 0.000000 0 0 0
126 16 1 45.000000 1.000000 0.000000 0 0 0
127 16 1 46.000000 1.000000 0.000000 0 0 0
128 16 1 47.000000 1.000000 0.000000 0 0 0
129 17 1 48.000000 1.000000 0.000000 0 0 0
130 17 1 49.000000 1.000000 0.000000 0 0 0
131 17 1 50.000000 1.000000 0.000000 0 0 0
132 17 1 51.000000 1.000000 0.000000 0 0 0
133 17 1 52.000000 1.000000 0.000000 0 0 0
134 17 1 53.000000 1.000000 0.000000 0 0 0
135 17 1 54.000000 1.000000 0.000000 0 0 0
136 17 1 55.000000 1.000000 0.000000 0 0 0
137 18 1 56.000000 1.000000 0.000000 0 0 0
138 18 1 57.000000 1.000000 0.000000 0 0 0
139 18 1 58.000000 1.000000 0.000000 0 0 0
140 18 1 59.000000 1.000000 0.000000 0 0 0
141 18 1 60.000000 1.000000 0.000000 0 0 0
142 18 1 61.000000 1.000000 0.000000 0 0 0
143 18 1 62.000000 1.000000 0.000000 0 0 0
144 18 1 63.000000 1.000000 0.000000 0 0 0
145 19 1 64.000000 1.000000 0.000000 0 0 0
146 19 1 65.000000 1.000000 0.000000 0 0 0
147 19 1 66.000000 1.000000 0.000000 0 0 0
148 19 1 67.000000 1.000000 0.000000 0 0 0
149 19 1 68.000000 1.000000 0.000000 0 0 0
150 19 1 69.000000 1.000000 0.000000 0 0 0
151 19 1 70.000000 1.000000 0.000000 0 0 0
152 19 1 71.000000 1.000000 0.000000 0 0 0
153 20 1 72.000000 1.000000 0.000000 0 0 0
154 20 1 73.000000 1.000000 0.000000 0 0 0
155 20 1 74.000000 1.000000 0.000000 0 0 0
156 20 1 75.000000 1.000000 0.000000 0 0 0
157 20 1 76.000000 1.000000 0.000000 0 0 0
158 20 1 77.000000 1.000000 0.000000 0 0 0
159 20 1 78.000000 1.000000 0.000000 0 0 0
160 20 1 79.000000 1.000000 0.000000 0 0 0
161 21 1 0.000000 2.000000 0.000000 0 0 0
162 21 1 1.000000 2.000000 0.000000 0 0 0
163 21 1 2.000000 2.000000 0.000000 0 0 0
164 21 1 3.000000 2.000000 0.000000 0 0 0
165 21 1 4.000000 2.000000 0.000000 0 0 0
166 21 1 5.000000 2.000000 0.000000 0 0 0
167 21 1 6.000000 2.000000 0.000000 0 0 0
168 21 1 7.000000 2.000000 0.000000 0 0 0
169 22 1 8.000000 2.000000 0.000000 0 0 0
170 22 1 9.000000 2.000000 0.000000 0 0 0
171 22 1 10.000000 2.000000 0.000000 0 0 0
172 22 1 11.000000 2.000000 0.000000 0 0 0
173 22 1 12.000000 2.000000 0.000000 0 0 0
174 22 1 13.000000 2.000000 0.000000 0 0 0
175 22 1 14.000000 2.000000 0.000000 0 0 0
176 22 1 15.000000 2.000000 0.000000 0 0 0
177 23 1 16.000000 2.000000 0.000000 0 0 0
178 23 1 17.000000 2.000000 0.000000 0 0 0
179 23 1 18.000000 2.000000 0.000000 0 0 0
180 23 1 19.000000 2.000000 0.000000 0 0 0
181 23 1 20.000000 2.000000 0.000000 0 0 0
182 23 1 21.000000 2.000000 0.000000 0 0 0
183 23 1 22.000000 2.000000 0.000000 0 0 0
184 23 1 23.000000 2.000000 0.000000 0 0 0
185 24 1 24.000000 2.000000 0.000000 0 0 0
186 24 1 25.000000 2.000000 0.000000 0 0 0
187 24 1 26.000000 2.000000 0.000000 0 0 0
188 24 1 27.000000 2.000000 0.000000 0 0 0
189 24 1 28.000000 2.000000 0.000000 0 0 0
190 24 1 29.000000 2.000000 0.000000 0 0 0
191 24 1 30.000000 2.000000 0.000000 0 0 0
192 24 1 31.000000 2.000000 0.000000 0 0 0
193 25 1 32.000000 2.000000 0.000000 0 0 0
194 25 1 33.000000 2.000000 0.000000 0 0 0
195 25 1 34.000000 2.000000 0.000000 0 0 0
196 25 1 35.000000 2.000000 0.000000 0 0 0
197 25 1 36.000000 2.000000 0.000000 0 0 0
198 25 1 37.000000 2.000000 0.000000 0 0 0
199 25 1 38.000000 2.000000 0.000000 0 0 0
200 25 1 39.000000 2.000000 0.000000 0 0 0
201 26 1 40.000000 2.000000 0.000000 0 0 0
202 26 1 41.000000 2.000000 0.000000 0 0 0
203 26 1 42.000000 2.000000 0.000000 0 0 0
204 26 1 43.000000 2.000000 0.000000 0 0 0
205 26 1 44.000000 2.000000 0.000000 0 0 0
206 26 1 45.000000 2.000000 0.000000 0 0 0
207 26 1 46.000000 2.000000 0.000000 0 0 0
208 26 1 47.000000 2.000000 0.000000 0 0 0
209 27 1 48.000000 2.000000 0.000000 0 0 0
210 27 1 49.000000 2.000000 0.000000 0 0 0
211 27 1 50.000000 2.000000 0.000000 0 0 0
212 27 1 51.000000 2.000000 0.000000 0 0 0
213 27 1 52.000000 2.000000 0.000000 0 0 0
214 27 1 53.000000 2.000000 0.000000 0 0 0
215 27 1 54.000000 2.000000 0.000000 0 0 0
216 27 1 55.000000 2.000000 0.000000 0 0 0
217 28 1 56.000000 2.000000 0.000000 0 0 0
218 28 1 57.000000 2.000000 0.000000 0 0 0
219 28 1 58.000000 2.000000 0.000000 0 0 0
220 28 1 59.000000 2.000000 0.000000 0 0 0
221 28 1 60.000000 2.000000 0.000000 0 0 0
222 28 1 61.000000 2.000000 0.000000 0 0 0
223 28 1 62.000000 2.000000 0.000000 0 0 0
224 28 1 63.000000 2.000000 0.000000 0 0 0
225 29 1 64.000000 2.000000 0.000000 0 0 0
226 29 1 65.000000 2.000000 0.000000 0 0 0
227 29 1 66.000000 2.000000 0.000000 0 0 0
228 29 1 67.000000 2.000000 0.000000 0 0 0
229 29 1 68.000000 2.000000 0.000000 0 0 0
230 29 1 69.000000 2.000000 0.000000 0 0 0
231 29 1 70.000000 2.000000 0.000000 0 0 0
232 29 1 71.000000 2.000000 0.000000 0 0 0
233 30 1 72.000000 2.000000 0.000000 0 0 0
234 30 1 73.000000 2.000000 0.000000 0 0 0
235 30 1 74.000000 2.000000 0.000000 0 0 0
236 30 1 75.000000 2.000000 0.000000 0 0 0
237 30 1 76.000000 2.000000 0.000000 0 0 0
238 30 1 77.000000 2.000000 0.000000 0 0 0
239 30 1 78.000000 2.000000 0.000000 0 0 0
240 30 1 79.000000 2.000000 0.000000 0 0 0
241 31 1 0.000000 3.000000 0.000000 0 0 0
242 31 1 1.000000 3.000000 0.000000 0 0 0
243 31 1 2.000000 3.000000 0.000000 0 0 0
244 31 1 3.000000 3.000000 0.000000 0 0 0
245 31 1 4.000000 3.000000 0.000000 0 0 0
246 31 1 5.000000 3.000000 0.000000 0 0 0
247 31 1 6.000000 3.000000 0.000000 0 0 0
248 31 1 7.000000 3.000000 0.000000 0 0 0
249 32 1 8.000000 3.000000 0.000000 0 0 0
250 32 1 9.000000 3.000000 0.000000 0 0 0
251 32 1 10.000000 3.000000 0.000000 0 0 0
252 32 1 11.000000 3.000000 0.000000 0 0 0
253 32 1 12.000000 3.000000 0.000000 0 0 0
254 32 1 13.000000 3.000000 0.000000 0 0 0
255 32 1 14.000000 3.000000 0.000000 0 0 0
256 32 1 15.000000 3.000000 0.000000 0 0 0
257 33 1 16.000000 3.000000 0.000000 0 0 0
258 33 1 17.000000 3.000000 0.000000 0 0 0
259 33 1 18.000000 3.000000 0.000000 0 0 0
260 33 1 19.000000 3.000000 0.000000 0 0 0
261 33 1 20.000000 3.000000 0.000000 0 0 0
262 33 1 21.000000 3.000000 0.000000 0 0 0
263 33 1 22.000000 3.000000 0.000000 0 0 0
264 33 1 23.000000 3.000000 0.000000 0 0 0
265 34 1 24.000000 3.000000 0.000000 0 0 0
266 34 1 25.000000 3.000000 0.000000 0 0 0
267 34 1 26.000000 3.000000 0.000000 0 0 0
268 34 1 27.000000 3.000000 0.000000 0 0 0
269 34 1 28.000000 3.000000 0.000000 0 0 0
270 34 1 29.000000 3.000000 0.000000 0 0 0
271 34 1 30.000000 3.000000 0.000000 0 0 0
272 34 1 31.000000 3.000000 0.000000 0 0 0
273 35 1 32.000000 3.000000 0.000000 0 0 0
274 35 1 33.000000 3.000000 0.000000 0 0 0
275 35 1 34.000000 3.000000 0.000000 0 0 0
276 35 1 35.000000 3.000000 0.000000 0 0 0
277 35 1 36.000000 3.000000 0.000000 0 0 0
278 35 1 37.000000 3.000000 0.000000 0 0 0
279 35 1 38.000000 3.000000 0.000000 0 0 0
280 35 1 39.000000 3.000000 0.000000 0 0 0
281 36 1 40.000000 3.000000 0.000000 0 0 0
282 36 1 41.000000 3.000000 0.000000 0 0 0
283 36 1 42.000000 3.000000 0.000000 0 0 0
284 36 1 43.000000 3.000000 0.000000 0 0 0
285 36 1 44.000000 3.000000 0.000000 0 0 0
286 36 1 45.000000 3.000000 0.000000 0 0 0
287 36 1 46.000000 3.000000 0.000000 0 0 0
288 36 1 47.000000 3.000000 0.000000 0 0 0
289 37 1 48.000000 3.000000 0.000000 0 0 0
290 37 1 49.000000 3.000000 0.000000 0 0 0
291 37 1 50.000000 3.000000 0.000000 0 0 0
292 37 1 51.000000 3.000000 0.000000 0 0 0
293 37 1 52.000000 3.000000 0.000000 0 0 0
294 37 1 53.000000 3.000000 0.000000 0 0 0
295 37 1 54.000000 3.000000 0.000000 0 0 0
296 37 1 55.000000 3.000000 0.000000 0 0 0
297 38 1 56.000000 3.000000 0.000000 0 0 0
298 38 1 57.000000 3.000000 0.000000 0 0 0
299 38 1 58.000000 3.000000 0.000000 0 0 0
300 38 1 59.000000 3.000000 0.000000 0 0 0
301 38 1 60.000000 3.000000 0.000000 0 0 0
302 38 1 61.000000 3.000000 0.000000 0 0 0
303 38 1 62.000000 3.000000 0.000000 0 0 0
304 38 1 63.000000 3.000000 0.000000 0 0 0
305 39 1 64.000000 3.000000 0.000000 0 0 0
306 39 1 65.000000 3.000000 0.000000 0 0 0
307 39 1 66.000000 3.000000 0.000000 0 0 0
308 39 1 67.000000 3.000000 0.000000 0 0 0
309 39 1 68.000000 3.000000 0.000000 0 0 0
310 39 1 69.000000 3.000000 0.000000 0 0 0
311 39 1 70.000000 3.000000 0.000000 0 0 0
312 39 1 71.000000 3.000000 0.000000 0 0 0
313 40 1 72.000000 3.000000 0.000000 0 0 0
314 40 1 73.000000 3.000000 0.000000 0 0 0
315 40 1 74.000000 3.000000 0.000000 0 0 0
316 40 1 75.000000 3.000000 0.000000 0 0 0
317 40 1 76.000000 3.000000 0.000000 0 0 0
318 40 1 77.000000 3.000000 0.000000 0 0 0
319 40 1 78.000000 3.000000 0.000000 0 0 0
320 40 1 79.000000 3.000000 0.000000 0 0 0
321 41 1 0.000000 4.000000 0.000000 0 0 0
322 41 1 1.000000 4.000000 0.000000 0 0 0
323 41 1 2.000000 4.000000 0.000000 0 0 0
324 41 1 3.000000 4.000000 0.000000 0 0 0
325 41 1 4.000000 4.000000 0.000000 0 0 0
326 41 1 5.000000 4.000000 0.000000 0 0 0
327 41 1 6.000000 4.000000 0.000000 0 0 0
328 41 1 7.000000 4.000000 0.000000 0 0 0
329 42 1 8.000000 4.000000 0.000000 0 0 0
330 42 1 9.000000 4.000000 0.000000 0 0 0
331 42 1 10.000000 4.000000 0.000000 0 0 0
332 42 1 11.000000 4.000000 0.000000 0 0 0
333 42 1 12.000000 4.000000 0.000000 0 0 0
334 42 1 13.000000 4.000000 0.000000 0 0 0
335 42 1 14.000000 4.000000 0.000000 0 0 0
336 42 1 15.000000 4.000000 0.000000 0 0 0
337 43 1 16.000000 4.000000 0.000000 0 0 0
338 43 1 17.000000 4.000000 0.000000 0 0 0
339 43 1 18.000000 4.000000 0.000000 0 0 0
340 43 1 19.000000 4.000000 0.000000 0 0 0
341 43 1 20.000000 4.000000 0.000000 0 0 0
342 43 1 21.000000 4.000000 0.000000 0 0 0
343 43 1 22.000000 4.000000 0.000000 0 0 0
344 43 1 23.000000 4.000000 0.000000 0 0 0
345 44 1 24.000000 4.000000 0.000000 0 0 0
346 44 1 25.000000 4.000000 0.000000 0 0 0
347 44 1 26.000000 4.000000 0.000000 0 0 0
348 44 1 27.000000 4.000000 0.000000 0 0 0
349 44 1 28.000000 4.000000 0.000000 0 0 0
350 44 1 29.000000 4.000000 0.000000 0 0 0
351 44 1 30.000000 4.000000 0.000000 0 0 0
352 44 1 31.000000 4.000000 0.000000 0 0 0
353 45 1 32.000000 4.000000 0.000000 0 0 0
354 45 1 33.000000 4.000000 0.000000 0 0 0
355 45 1 34.000000 4.000000 0.000000 0 0 0
356 45 1 35.000000 4.000000 0.000000 0 0 0
357 45 1 36.000000 4.000000 0.000000 0 0 0
358 45 1 37.000000 4.000000 0.000000 0 0 0
359 45 1 38.000000 4.000000 0.000000 0 0 0
360 45 1 39.000000 4.000000 0.000000 0 0 0
361 46 1 40.000000 4.000000 0.000000 0 0 0
362 46 1 41.000000 4.000000 0.000000 0 0 0
363 46 1 42.000000 4.000000 0.000000 0 0 0
364 46 1 43.000000 4.000000 0.000000 0 0 0
365 46 1 44.000000 4.000000 0.000000 0 0 0
366 46 1 45.000000 4.000000 0.000000 0 0 0
367 46 1 46.000000 4.000000 0.000000 0 0 0
368 46 1 47.000000 4.000000 0.000000 0 0 0
369 47 1 48.000000 4.000000 0.000000 0 0 0
370 47 1 49.000000 4.000000 0.000000 0 0 0
371 47 1 50.000000 4.000000 0.000000 0 0 0
372 47 1 51.000000 4.000000 0.000000 0 0 0
373 47 1 52.000000 4.000000 0.000000 0 0 0
374 47 1 53.000000 4.000000 0.000000 0 0 0
375 47 1 54.000000 4.000000 0.000000 0 0 0
376 47 1 55.000000 4.000000 0.000000 0 0 0
377 48 1 56.000000 4.000000 0.000000 0 0 0
378 48 1 57.000000 4.000000 0.000000 0 0 0
379 48 1 58.000000 4.000000 0.000000 0 0 0
380 48 1 59.000000 4.000000 0.000000 0 0 0
381 48 1 60.000000 4.000000 0.000000 0 0 0
382 48 1 61.000000 4.000000 0.000000 0 0 0
383 48 1 62.000000 4.000000 0.000000 0 0 0
384 48 1 63.000000 4.000000 0.000000 0 0 0
385 49 1 64.000000 4.000000 0.000000 0 0 0
386 49 1 65.000000 4.000000 0.000000 0 0 0
387 49 1 66.000000 4.000000 0.000000 0 0 0
388 49 1 67.000000 4.000000 0.000000 0 0 0
389 49 1 68.000000 4.000000 0.000000 0 0 0
390 49 1 69.000000 4.000000 0.000000 0 0 0
391 49 1 70.000000 4.000000 0.000000 0 0 0
392 49 1 71.000000 4.000000 0.000000 0 0 0
393 50 1 72.000000 4.000000 0.000000 0 0 0
394 50 1 73.000000 4.000000 0.000000 0 0 0
395 50 1 74.000000 4.000000 0.000000 0 0 0
396 50 1 75.000000 4.000000 0.000000 0 0 0
397 50 1 76.000000 4.000000 0.000000 0 0 0
398 50 1 77.000000 4.000000 0.000000 0 0 0
399 50 1 78.000000 4.000000 0.000000 0 0 0
400 50 1 79.000000 4.000000 0.000000 0 0 0
401 51 1 0.000000 5.000000 0.000000 0 0 0
402 51 1 1.000000 5.000000 0.000000 0 0 0
403 51 1 2.000000 5.000000 0.000000 0 0 0
404 51 1 3.000000 5.000000 0.000000 0 0 0
405 51 1 4.000000 5.000000 0.000000 0 0 0
406 51 1 5.000000 5.000000 0.000000 0 0 0
407 51 1 6.000000 5.000000 0.000000 0 0 0
408 51 1 7.000000 5.000000 0.000000 0 0 0
409 52 1 8.000000 5.000000 0.000000 0 0 0
410 52 1 9.000000 5.000000 0.000000 0 0 0
411 52 1 10.000000 5.000000 0.000000 0 0 0
412 52 1 11.000000 5.000000 0.000000 0 0 0
413 52 1 12.000000 5.000000 0.000000 0 0 0
414 52 1 13.000000 5.000000 0.000000 0 0 0
415 52 1 14.000000 5.000000 0.000000 0 0 0
416 52 1 15.000000 5.000000 0.000000 0 0 0
417 53 1 16.000000 5.000000 0.000000 0 0 0
418 53 1 17.000000 5.000000 0.000000 0 0 0
419 53 1 18.000000 5.000000 0.000000 0 0 0
420 53 1 19.000000 5.000000 0.000000 0 0 0
421 53 1 20.000000 5.000000 0.000000 0 0 0
422 53 1 21.000000 5.000000 0.000000 0 0 0
423 53 1 22.000000 5.000000 0.000000 0 0 0
424 53 1 23.000000 5.000000 0.000000 0 0 0
425 54 1 24.000000 5.000000 0.000000 0 0 0
426 54 1 25.000000 5.000000 0.000000 0 0 0
427 54 1 26.000000 5.000000 0.000000 0 0 0
428 54 1 27.000000 5.000000 0.000000 0 0 0
429 54 1 28.000000 5.000000 0.000000 0 0 0
430 54 1 29.000000 5.000000 0.000000 0 0 0
431 54 1 30.000000 5.000000 0.000000 0 0 0
432 54 1 31.000000 5.000000 0.000000 0 0 0
433 55 1 32.000000 5.000000 0.000000 0 0 0
434 55 1 33.000000 5.000000 0.000000 0 0 0
435 55 1 34.000000 5.000000 0.000000 0 0 0
436 55 1 35.000000 5.000000 0.000000 0 0 0
437 55 1 36.000000 5.000000 0.000000 0 0 0
438 55 1 37.000000 5.000000 0.000000 0 0 0
439 55 1 38.000000 5.000000 0.000000 0 0 0
440 55 1 39.000000 5.000000 0.000000 0 0 0
441 56 1 40.000000 5.000000 0.000000 0 0 0
442 56 1 41.000000 5.000000 0.000000 0 0 0
443 56 1 42.000000 5.000000 0.000000 0 0 0
444 56 1 43.000000 5.000000 0.000000 0 0 0
445 56 1 44.000000 5.000000 0.000000 0 0 0
446 56 1 45.000000 5.000000 0.000000 0 0 0
447 56 1 46.000000 5.000000 0.000000 0 0 0
448 56 1 47.000000 5.000000 0.000000 0 0 0
449 57 1 48.000000 5.000000 0.000000 0 0 0
450 57 1 49.000000 5.000000 0.000000 0 0 0
451 57 1 50.000000 5.000000 0.000000 0 0 0
452 57 1 51.000000 5.000000 0.000000 0 0 0
453 57 1 52.000000 5.000000 0.000000 0 0 0
454 57 1 53.000000 5.000000 0.000000 0 0 0
455 57 1 54.000000 5.000000 0.000000 0 0 0
456 57 1 55.000000 5.000000 0.000000 0 0 0
457 58 1 56.000000 5.000000 0.000000 0 0 0
458 58 1 57.000000 5.000000 0.000000 0 0 0
459 58 1 58.000000 5.000000 0.000000 0 0 0
460 58 1 59.000000 5.000000 0.000000 0 0 0
461 58 1 60.000000 5.000000 0.000000 0 0 0
462 58 1 61.000000 5.000000 0.000000 0 0 0
463 58 1 62.000000 5.000000 0.000000 0 0 0
464 58 1 63.000000 5.000000 0.000000 0 0 0
465 59 1 64.000000 5.000000 0.000000 0 0 0
466 59 1 65.000000 5.000000 0.000000 0 0 0
467 59 1 66.000000 5.000000 0.000000 0 0 0
468 59 1 67.000000 5.000000 0.000000 0 0 0
469 59 1 68.000000 5.000000 0.000000 0 0 0
470 59 1 69.000000 5.000000 0.000000 0 0 0
471 59 1 70.000000 5.000000 0.000000 0 0 0
472 59 1 71.000000 5.000000 0.000000 0 0 0
473 60 1 72.000000 5.000000 0.000000 0 0 0
474 60 1 73.000000 5.000000 0.000000 0 0 0
475 60 1 74.000000 5.000000 0.000000 0 0 0
476 60 1 75.000000 5.000000 0.000000 0 0 0
477 60 1 76.000000 5.000000 0.000000 0 0 0
478 60 1 77.000000 5.000000 0.000000 0 0 0
479 60 1 78.000000 5.000000 0.000000 0 0 0
480 60 1 79.000000 5.000000 0.000000 0 0 0
481 61 1 0.000000 6.000000 0.000000 0 0 0
482 61 1 1.000000 6.000000 0.000000 0 0 0
483 61 1 2.000000 6.000000 0.000000 0 0 0
484 61 1 3.000000 6.000000 0.000000 0 0 0
485 61 1 4.000000 6.000000 0.000000 0 0 0
486 61 1 5.000000 6.000000 0.000000 0 0 0
487 61 1 6.000000 6.000000 0.000000 0 0 0
488 61 1 7.000000 6.000000 0.000000 0 0 0
489 62 1 8.000000 6.000000 0.000000 0 0 0
490 62 1 9.000000 6.000000 0.000000 0 0 0
491 62 1 10.000000 6.000000 0.000000 0 0 0
492 62 1 11.000000 6.000000 0.000000 0 0 0
493 62 1 12.000000 6.000000 0.000000 0 0 0
494 62 1 13.000000 6.000000 0.000000 0 0 0
495 62 1 14.000000 6.000000 0.000000 0 0 0
496 62 1 15.000000 6.000000 0.000000 0 0 0
497 63 1 16.000000 6.000000 0.000000 0 0 0
498 63 1 17.000000 6.000000 0.000000 0 0 0
499 63 1 18.000000 6.000000 0.000000 0 0 0
500 63 1 19.000000 6.000000 0.000000 0 0 0
501 63 1 20.000000 6.000000 0.000000 0 0 0
502 63 1 21.000000 6.000000 0.000000 0 0 0
503 63 1 22.000000 6.000000 0.000000 0 0 0
504 63 1 23.000000 6.000000 0.000000 0 0 0
505 64 1 24.000000 6.000000 0.000000 0 0 0
506 64 1 25.000000 6.000000 0.000000 0 0 0
507 64 1 26.000000 6.000000 0.000000 0 0 0
508 64 1 27.000000 6.000000 0.000000 0 0 0
509 64 1 28.000000 6.000000 0.000000 0 0 0
510 64 1 29.000000 6.000000 0.000000 0 0 0
511 64 1 30.000000 6.000000 0.000000 0 0 0
512 64 1 31.000000 6.000000 0.000000 0 0 0
513 65 1 32.000000 6.000000 0.000000 0 0 0
514 65 1 33.000000 6.000000 0.000000 0 0 0
515 65 1 34.000000 6.000000 0.000000 0 0 0
516 65 1 35.000000 6.000000 0.000000 0 0 0
517 65 1 36.000000 6.000000 0.000000 0 0 0
518 65 1 37.000000 6.000000 0.000000 0 0 0
519 65 1 38.000000 6.000000 0.000000 0 0 0
520 65 1 39.000000 6.000000 0.000000 0 0 0
521 66 1 40.000000 6.000000 0.000000 0 0 0
522 66 1 41.000000 6.000000 0.000000 0 0 0
523 66 1 42.000000 6.000000 0.000000 0 0 0
524 66 1 43.000000 6.000000 0.000000 0 0 0
525 66 1 44.000000 6.000000 0.000000 0 0 0
526 66 1 45.000000 6.000000 0.000000 0 0 0
527 66 1 46.000000 6.000000 0.000000 0 0 0
528 66 1 47.000000 6.000000 0.000000 0 0 0
529 67 1 48.000000 6.000000 0.000000 0 0 0
530 67 1 49.000000 6.000000 0.000000 0 0 0
531 67 1 50.000000 6.000000 0.000000 0 0 0
532 67 1 51.000000 6.000000 0.000000 0 0 0
533 67 1 52.000000 6.000000 0.000000 0 0 0
534 67 1 53.000000 6.000000 0.000000 0 0 0
535 67 1 54.000000 6.000000 0.000000 0 0 0
536 67 1 55.000000 6.000000 0.000000 0 0 0
537 68 1 56.000000 6.000000 0.000000 0 0 0
538 68 1 57.000000 6.000000 0.000000 0 0 0
539 68 1 58.000000 6.000000 0.000000 0 0 0
540 68 1 59.000000 6.000000 0.000000 0 0 0
541 68 1 60.000000 6.000000 0.000000 0 0 0
542 68 1 61.000000 6.000000 0.000000 0 0 0
543 68 1 62.000000 6.000000 0.000000 0 0 0
544 68 1 63.000000 6.000000 0.000000 0 0 0
545 69 1 64.000000 6.000000 0.000000 0 0 0
546 69 1 65.000000 6.000000 0.000000 0 0 0
547 69 1 66.000000 6.000000 0.000000 0 0 0
548 69 1 67.000000 6.000000 0.000000 0 0 0
549 69 1 68.000000 6.000000 0.000000 0 0 0
550 69 1 69.000000 6.000000 0.000000 0 0 0
551 69 1 70.000000 6.000000 0.000000 0 0 0
552 69 1 71.000000 6.000000 0.000000 0 0 0
553 70 1 72.000000 6.000000 0.000000 0 0 0
554 70 1 73.000000 6.000000 0.000000 0 0 0
555 70 1 74.000000 6.000000 0.000000 0 0 0
556 70 1 75.000000 6.000000 0.000000 0 0 0
557 70 1 76.000000 6.000000 0.000000 0 0 0
558 70 1 77.000000 6.000000 0.000000 0 0 0
559 70 1 78.000000 6.000000 0.000000 0 0 0
560 70 1 79.000000 6.000000 0.000000 0 0 0
561 71 1 0.000000 7.000000 0.000000 0 0 0
562 71 1 1.000000 7.000000 0.000000 0 0 0
563 71 1 2.000000 7.000000 0.000000 0 0 0
564 71 1 3.000000 7.000000 0.000000 0 0 0
565 71 1 4.000000 7.000000 0.000000 0 0 0
566 71 1 5.000000 7.000000 0.000000 0 0 0
567 71 1 6.000000 7.000000 0.000000 0 0 0
568 71 1 7.000000 7.000000 0.000000 0 0 0
569 72 1 8.000000 7.000000 0.000000 0 0 0
570 72 1 9.000000 7.000000 0.000000 0 0 0
571 72 1 10.000000 7.000000 0.000000 0 0 0
572 72 1 11.000000 7.000000 0.000000 0 0 0
573 72 1 12.000000 7.000000 0.000000 0 0 0
574 72 1 13.000000 7.000000 0.000000 0 0 0
575 72 1 14.000000 7.000000 0.000000 0 0 0
576 72 1 15.000000 7.000000 0.000000 0 0 0
577 73 1 16.000000 7.000000 0.000000 0 0 0
578 73 1 17.000000 7.000000 0.000000 0 0 0
579 73 1 18.000000 7.000000 0.000000 0 0 0
580 73 1 19.000000 7.000000 0.000000 0 0 0
581 73 1 20.000000 7.000000 0.000000 0 0 0
582 73 1 21.000000 7.000000 0.000000 0 0 0
583 73 1 22.000000 7.000000 0.000000 0 0 0
584 73 1 23.000000 7.000000 0.000000 0 0 0
585 74 1 24.000000 7.000000 0.000000 0 0 0
586 74 1 25.000000 7.000000 0.000000 0 0 0
587 74 1 26.000000 7.000000 0.000000 0 0 0
588 74 1 27.000000 7.000000 0.000000 0 0 0
589 74 1 28.000000 7.000000 0.000000 0 0 0
590 74 1 29.000000 7.000000 0.000000 0 0 0
591 74 1 30.000000 7.000000 0.000000 0 0 0
592 74 1 31.000000 7.000000 0.000000 0 0 0
593 75 1 32.000000 7.000000 0.000000 0 0 0
594 75 1 33.000000 7.000000 0.000000 0 0 0
595 75 1 34.000000 7.000000 0.000000 0 0 0
596 75 1 35.000000 7.000000 0.000000 0 0 0
597 75 1 36.000000 7.000000 0.000000 0 0 0
598 75 1 37.000000 7.000000 0.000000 0 0 0
599 75 1 38.000000 7.000000 0.000000 0 0 0
600 75 1 39.000000 7.000000 0.000000 0 0 0
601 76 1 40.000000 7.000000 0.000000 0 0 0
602 76 1 41.000000 7.000000 0.000000 0 0 0
603 76 1 42.000000 7.000000 0.000000 0 0 0
604 76 1 43.000000 7.000000 0.000000 0 0 0
605 76 1 44.000000 7.000000 0.000000 0 0 0
606 76 1 45.000000 7.000000 0.000000 0 0 0
607 76 1 46.000000 7.000000 0.000000 0 0 0
608 76 1 47.000000 7.000000 0.000000 0 0 0
609 77 1 48.000000 7.000000 0.000000 0 0 0
610 77 1 49.000000 7.000000 0.000000 0 0 0
611 77 1 50.000000 7.000000 0.000000 0 0 0
612 77 1 51.000000 7.000000 0.000000 0 0 0
613 77 1 52.000000 7.000000 0.000000 0 0 0
614 77 1 53.000000 7.000000 0.000000 0 0 0
615 77 1 54.000000 7.000000 0.000000 0 0 0
616 77 1 55.000000 7.000000 0.000000 0 0 0
617 78 1 56.000000 7.000000 0.000000 0 0 0
618 78 1 57.000000 7.000000 0.000000 0 0 0
619 78 1 58.000000 7.000000 0.000000 0 0 0
620 78 1 59.000000 7.000000 0.000000 0 0 0
621 78 1 60.000000 7.000000 0.000000 0 0 0
622 78 1 61.000000 7.000000 0.000000 0 0 0
623 78 1 62.000000 7.000000 0.000000 0 0 0
624 78 1 63.000000 7.000000 0.000000 0 0 0
625 79 1 64.000000 7.000000 0.000000 0 0 0
626 79 1 65.000000 7.000000 0.000000 0 0 0
627 79 1 66.000000 7.000000 0.000000 0 0 0
628 79 1 67.000000 7.000000 0.000000 0 0 0
629 79 1 68.000000 7.000000 0.000000 0 0 0
630 79 1 69.000000 7.000000 0.000000 0 0 0
631 79 1 70.000000 7.000000 0.000000 0 0 0
632 79 1 71.000000 7.000000 0.000000 0 0 0
633 80 1 72.000000 7.000000 0.000000 0 0 0
634 80 1 73.000000 7.000000 0.000000 0 0 0
635 80 1 74.000000 7.000000 0.000000 0 0 0
636 80 1 75.000000 7.000000 0.000000 0 0 0
637 80 1 76.000000 7.000000 0.000000 0 0 0
638 80 1 77.000000 7.000000 0.000000 0 0 0
639 80 1 78.000000 7.000000 0.000000 0 0 0
640 80 1 79.000000 7.000000 0.000000 0 0 0
641 81 1 0.000000 0.000000 1.000000 0 0 0
642 81 1 1.000000 0.000000 1.000000 0 0 0
643 81 1 2.000000 0.000000 1.000000 0 0 0
644 81 1 3.000000 0.000000 1.000000 0 0 0
645 81 1 4.000000 0.000000 1.000000 0 0 0
646 81 1 5.000000 0.000000 1.000000 0 0 0
647 81 1 6.000000 0.000000 1.000000 0 0 0
648 81 1 7.000000 0.000000 1.000000 0 0 0
649 82 1 8.000000 0.000000 1.000000 0 0 0
650 82 1 9.000000 0.000000 1.000000 0 0 0
651 82 1 10.000000 0.000000 1.000000 0 0 0
652 82 1 11.000000 0.000000 1.000000 0 0 0
653 82 1 12.000000 0.000000 1.000000 0 0 0
654 82 1 13.000000 0.000000 1.000000 0 0 0
655 82 1 14.000000 0.000000 1.000000 0 0 0
656 82 1 15.000000 0.000000 1.000000 0 0 0
657 83 1 16.000000 0.000000 1.000000 0 0 0
658 83 1 17.000000 0.000000 1.000000 0 0 0
659 83 1 18.000000 0.000000 1.000000 0 0 0
660 83 1 19.000000 0.000000 1.000000 0 0 0
661 83 1 20.000000 0.000000 1.000000 0 0 0
662 83 1 21.000000 0.000000 1.000000 0 0 0
663 83 1 22.000000 0.000000 1.000000 0 0 0
664 83 1 23.000000 0.000000 1.000000 0 0 0
665 84 1 24.000000 0.000000 1.000000 0 0 0
666 84 1 25.000000 0.000000 1.000000 0 0 0
667 84 1 26.000000 0.000000 1.000000 0 0 0
668 84 1 27.000000 0.000000 1.000000 0 0 0
669 84 1 28.000000 0.000000 1.000000 0 0 0
670 84 1 29.000000 0.000000 1.000000 0 0 0
671 84 1 30.000000 0.000000 1.000000 0 0 0
672 84 1 31.000000 0.000000 1.000000 0 0 0
673 85 1 32.000000 0.000000 1.000000 0 0 0
674 85 1 33.000000 0.000000 1.000000 0 0 0
675 85 1 34.000000 0.000000 1.000000 0 0 0
676 85 1 35.000000 0.000000 1.000000 0 0 0
677 85 1 36.000000 0.000000 1.000000 0 0 0
678 85 1 37.000000 0.000000 1.000000 0 0 0
679 85 1 38.000000 0.000000 1.000000 0 0 0
680 85 1 39.000000 0.000000 1.000000 0 0 0
681 86 1 40.000000 0.000000 1.000000 0 0 0
682 86 1 41.000000 0.000000 1.000000 0 0 0